unknown system                          
           1
    15.000000    0.000000    0.000000
     0.000000   15.000000    0.000000
     0.000000    0.000000   15.000000
   C    H    N    O 
  85 197  24  23
Direct configuration=    50
   0.38102599  0.90312286  0.32105930
   0.29196945  0.03237484  0.38347319
   0.29801264  0.00129372  0.22122496
   0.92878574  0.59531744  0.37784634
   0.89429088  0.55566392  0.22073370
   0.79591170  0.65418169  0.30534465
   0.10175572  0.29314744  0.57548618
   0.18469376  0.24962819  0.71085236
   0.22391589  0.18275410  0.56482300
   0.57050542  0.22518378  0.04437815
   0.41094449  0.19384798  0.09098839
   0.44503826  0.30262073  0.97558487
   0.83593581  0.83460545  0.92141675
   0.67934043  0.87995070  0.98439424
   0.78925792  0.77759841  0.05800138
   0.85309754  0.16970938  0.90891047
   0.83746678  0.08283418  0.05017705
   0.97569227  0.06576702  0.95612120
   0.07264341  0.03833834  0.62643779
   0.92893110  0.04986433  0.71010029
   0.93118067  0.08523748  0.55652560
   0.07587748  0.44500254  0.85948282
   0.03985182  0.31367951  0.96416948
   0.19306889  0.36556813  0.95303842
   0.74701099  0.94405502  0.20293250
   0.83721200  0.88043717  0.33471472
   0.68393080  0.83241944  0.30010994
   0.13516461  0.83686367  0.25289051
   0.06428064  0.85452406  0.40759113
   0.05167712  0.97184678  0.29509895
   0.84867422  0.81116334  0.64782861
   0.68906313  0.84650306  0.59515442
   0.70838660  0.74087158  0.71910297
   0.61750948  0.22960485  0.79149157
   0.67355651  0.09149657  0.69942975
   0.51974540  0.10081355  0.74961292
   0.21452216  0.50827713  0.48720308
   0.11518066  0.58632602  0.59204852
   0.23853366  0.50111792  0.65469099
   0.09565475  0.34500399  0.34995693
   0.15356520  0.21080661  0.28105470
   0.04488291  0.30782358  0.20689649
   0.47726504  0.98961688  0.94081375
   0.39980847  0.85936613  0.01339282
   0.51231416  0.94217618  0.09041735
   0.55702916  0.10169264  0.32185852
   0.54711948  0.01478378  0.47516881
   0.68417910  0.03645701  0.39412407
   0.21771943  0.65394332  0.91307298
   0.05532400  0.69074955  0.89130881
   0.11315725  0.69372610  0.04270568
   0.37733336  0.98991175  0.61375806
   0.24952030  0.87868930  0.63891298
   0.40892487  0.83221369  0.64970221
   0.24249784  0.05479325  0.90115653
   0.15807084  0.92076112  0.95914311
   0.16950614  0.05833981  0.04277305
   0.76236197  0.37534957  0.29317951
   0.84549365  0.22998955  0.28004689
   0.85455631  0.31031537  0.41874545
   0.44398127  0.61170213  0.11306361
   0.55702295  0.49238329  0.14230636
   0.60310221  0.62512720  0.07514337
   0.61336742  0.54238978  0.55270988
   0.52369360  0.55623068  0.68841048
   0.65799418  0.45577683  0.68559057
   0.51216905  0.41878903  0.59840612
   0.55228558  0.35807757  0.53290767
   0.53983430  0.59353971  0.49981532
   0.48445507  0.51473889  0.76916694
   0.75106271  0.42428003  0.64462547
   0.44002216  0.58503980  0.83165967
   0.57195495  0.59710317  0.40068280
   0.48452007  0.28239085  0.51078535
   0.82258452  0.41636662  0.71845427
   0.42028437  0.32003884  0.43928314
   0.51195003  0.65791039  0.34504582
   0.49431524  0.67256856  0.85264356
   0.90565257  0.36831966  0.68615860
   0.80440517  0.54011711  0.94715618
   0.66827104  0.44290143  0.94415367
   0.79235409  0.40104665  0.03443841
   0.21458398  0.60279961  0.27092188
   0.21480832  0.48775259  0.14656178
   0.32506381  0.47990259  0.26485001
   0.36665957  0.85558943  0.26937516
   0.36991260  0.87677201  0.38710907
   0.45197115  0.92277173  0.31754587
   0.26923554  0.09981425  0.36491711
   0.35085935  0.04300436  0.42469894
   0.23698283  0.00561552  0.42192460
   0.25032407  0.05882026  0.22176741
   0.92389762  0.66020722  0.41490851
   0.99618151  0.58435070  0.35407976
   0.90266487  0.54280023  0.42605222
   0.85545664  0.58270559  0.16220732
   0.88246790  0.48598583  0.23242081
   0.96512563  0.56787461  0.20676067
   0.76075904  0.66516789  0.23978036
   0.11300204  0.36517613  0.56551230
   0.03871279  0.28857111  0.61834465
   0.08478282  0.26255464  0.51347786
   0.23253799  0.20158356  0.73414551
   0.11977489  0.24096122  0.74617050
   0.20569121  0.31893255  0.73354970
   0.27057128  0.14349332  0.60795258
   0.60610337  0.25430350  0.10166355
   0.60521352  0.25357431  0.98945893
   0.57787902  0.15385088  0.04866778
   0.42504089  0.12280992  0.08423476
   0.34711855  0.21317155  0.06891934
   0.41437573  0.21131833  0.16301135
   0.37033094  0.31507206  0.97763879
   0.84783125  0.76721636  0.90329630
   0.89576680  0.87445799  0.94332410
   0.80737589  0.87137247  0.86497857
   0.63844843  0.85452892  0.04167572
   0.64801141  0.86770949  0.92002061
   0.68909450  0.95109709  0.98629504
   0.73986926  0.76796917  0.11292192
   0.78215481  0.15408161  0.91347038
   0.88459771  0.15665167  0.84316838
   0.86591975  0.23953164  0.92573175
   0.76992088  0.05794375  0.03328208
   0.82424798  0.13663448  0.10237976
   0.86867349  0.02629237  0.08386217
   0.99507817  0.02308580  0.01050583
   0.09055385  0.02249162  0.55705255
   0.07943602  0.97287474  0.65901657
   0.11698637  0.08951217  0.65327620
   0.86266675  0.07404949  0.69932967
   0.96362723  0.07842382  0.76926516
   0.92442859  0.97675270  0.72370933
   0.86426187  0.09901725  0.58054445
   0.12693630  0.43827860  0.80497063
   0.07839435  0.51076403  0.89367716
   0.01066267  0.42900117  0.83369876
   0.98597066  0.30104287  0.91337348
   0.00602349  0.33660769  0.02673026
   0.07273786  0.24997657  0.97658836
   0.20426307  0.30081325  0.98468569
   0.76380711  0.89553772  0.14512846
   0.80269313  0.99282768  0.20275818
   0.68107069  0.96978837  0.18505514
   0.86194892  0.94565741  0.35529335
   0.89087397  0.85027132  0.29311250
   0.82155414  0.83564881  0.39232400
   0.69130669  0.79836375  0.36314706
   0.20412453  0.81335956  0.26677210
   0.13976549  0.88064084  0.19483413
   0.09598660  0.78002318  0.22722813
   0.11397616  0.86818461  0.46014686
   0.05186607  0.78284438  0.40634279
   0.00277561  0.88422985  0.43362067
   0.01397718  0.00284614  0.35094081
   0.88210336  0.81342066  0.71317770
   0.85597802  0.88238115  0.62468015
   0.88135173  0.76615487  0.59926953
   0.69589528  0.82881068  0.52229904
   0.71086101  0.91682116  0.59028094
   0.62234958  0.84338727  0.61865169
   0.63971039  0.75436100  0.72416227
   0.61924970  0.27662816  0.73516334
   0.68096350  0.23013330  0.83115619
   0.55968038  0.24760082  0.83694461
   0.67114776  0.12601305  0.63387022
   0.66777965  0.01838458  0.70779635
   0.73804419  0.10541945  0.73176552
   0.52380884  0.03738425  0.70762785
   0.15255654  0.49572211  0.44932730
   0.25981857  0.44891433  0.49259649
   0.25567714  0.56009471  0.45997164
   0.12619230  0.65055605  0.54925113
   0.11170826  0.60788053  0.66206109
   0.04995397  0.55356888  0.57564138
   0.21353859  0.53356486  0.71933282
   0.05412077  0.33189083  0.40941571
   0.07666037  0.41406235  0.32882458
   0.16713943  0.35077477  0.36489237
   0.15183395  0.17391433  0.21643758
   0.14528186  0.16757164  0.33935342
   0.22013491  0.24055405  0.28829612
   0.04660862  0.25997829  0.14930187
   0.42445813  0.04203997  0.94513390
   0.47324322  0.95135186  0.87869557
   0.53839185  0.02541491  0.94177558
   0.40293073  0.81611591  0.07430469
   0.40577681  0.81048245  0.95947079
   0.33390467  0.89368858  0.00801079
   0.49375796  0.89201194  0.14536327
   0.56258682  0.17360329  0.33043347
   0.47943064  0.09549106  0.31061103
   0.58866289  0.07840698  0.26112466
   0.49395669  0.96842564  0.45454277
   0.51634022  0.07092961  0.51036739
   0.59243183  0.97303548  0.51648530
   0.70723707  0.99465750  0.45043496
   0.24982866  0.59632963  0.93931494
   0.26361661  0.71289852  0.91307966
   0.20748759  0.64559093  0.83925691
   0.07933500  0.74081363  0.84099703
   0.99906327  0.71384079  0.92918121
   0.03484923  0.63063484  0.85498006
   0.04371510  0.70966543  0.05905608
   0.33879806  0.01449648  0.55310530
   0.44593102  0.98327053  0.60000957
   0.37022008  0.03521964  0.67150423
   0.24068384  0.80433986  0.64928552
   0.21565298  0.89326786  0.57657706
   0.21905168  0.91476879  0.69582938
   0.38024969  0.76904845  0.65859216
   0.29059479  0.10284240  0.92377029
   0.19446747  0.09322177  0.85738312
   0.27546627  0.00604278  0.85816208
   0.15062956  0.89104575  0.02634728
   0.19964547  0.87781211  0.91447046
   0.09150191  0.93642909  0.93184941
   0.13613592  0.01940955  0.09787084
   0.77211956  0.38544284  0.21998390
   0.77020784  0.43989896  0.33282307
   0.69169502  0.35777993  0.29868141
   0.90030610  0.19876244  0.31365991
   0.86861694  0.25321361  0.21395996
   0.79135962  0.18029432  0.26952498
   0.88818695  0.24681021  0.43593314
   0.40710357  0.56933250  0.15923594
   0.41164839  0.61268110  0.04718229
   0.44224007  0.67901020  0.14592610
   0.51206975  0.44206899  0.11041678
   0.53726095  0.48814722  0.21242214
   0.62462999  0.47415275  0.11900279
   0.66434094  0.58559525  0.07505025
   0.45437056  0.45781564  0.57496650
   0.49611245  0.38392725  0.65834093
   0.66329939  0.58915621  0.58161773
   0.64760064  0.49556885  0.50750028
   0.47279384  0.58471239  0.64531859
   0.56958272  0.61229267  0.70547565
   0.63008827  0.39797742  0.72286188
   0.67857976  0.51157206  0.72750496
   0.53251100  0.47568272  0.80760974
   0.43305102  0.46345147  0.75180371
   0.51943054  0.66102289  0.52010937
   0.48285144  0.54857023  0.48768142
   0.61999257  0.33653796  0.55351127
   0.56111752  0.38949923  0.46807063
   0.77135087  0.47044161  0.59296456
   0.73902845  0.36283340  0.60501800
   0.44754972  0.27111323  0.57524125
   0.51740582  0.22171450  0.48834868
   0.39515296  0.38233114  0.46596540
   0.36528885  0.27174676  0.43036697
   0.45202604  0.32648001  0.37315870
   0.64211268  0.61208277  0.40458568
   0.56435886  0.52706739  0.37660417
   0.44288959  0.64928959  0.36821689
   0.51380273  0.63545786  0.27694145
   0.52223707  0.73045675  0.34609729
   0.43590285  0.54449305  0.89520615
   0.37040856  0.59590187  0.81563328
   0.46016124  0.70530123  0.90823851
   0.50833171  0.71083577  0.78918756
   0.56074928  0.65890305  0.88087720
   0.79398753  0.37657808  0.77222428
   0.83235912  0.47852075  0.75198275
   0.89257990  0.30206777  0.65624735
   0.95289330  0.35340714  0.74167448
   0.93854229  0.40894044  0.63549537
   0.63322643  0.39701879  0.98854018
   0.66500442  0.41930912  0.87540952
   0.76628501  0.59899850  0.96730055
   0.80784207  0.53766869  0.87253142
   0.63590802  0.50844887  0.94565832
   0.87226531  0.54112497  0.97607736
   0.85730599  0.41844532  0.06390003
   0.23078146  0.65570253  0.22493114
   0.25616464  0.61075956  0.33456608
   0.14299277  0.59450712  0.28593357
   0.23916688  0.52195870  0.08512191
   0.14328596  0.49440219  0.14892115
   0.23552075  0.42104842  0.13652215
   0.35359922  0.43488840  0.21372319
   0.32024220  0.98102933  0.30816446
   0.87253883  0.60745203  0.29933466
   0.17478210  0.24102567  0.61506263
   0.47535197  0.23993211  0.03522090
   0.76543963  0.83058176  0.98979616
   0.89549874  0.10749855  0.97490575
   0.98176559  0.06903942  0.62935833
   0.10534655  0.37568848  0.92546574
   0.75582364  0.88316131  0.28000055
   0.08593828  0.89128506  0.32123664
   0.75097096  0.79488651  0.65620242
   0.60228812  0.13782512  0.76121555
   0.18773131  0.52371052  0.58108153
   0.08917753  0.28320326  0.27770808
   0.47021075  0.92297335  0.01226794
   0.59390049  0.05338503  0.40037536
   0.12891086  0.66992615  0.95418665
   0.34789859  0.90044405  0.63987542
   0.19849506  0.00941372  0.97353358
   0.81921858  0.30684899  0.33433321
   0.53586127  0.57991020  0.11376232
   0.57784512  0.49394640  0.62942153
   0.76103459  0.45637139  0.96922772
   0.24817298  0.51436211  0.23272238
   0.33759423  0.97110374  0.15453959
   0.77358498  0.68619146  0.37903633
   0.22381929  0.17098963  0.48294087
   0.49264487  0.34510506  0.92167365
   0.86322870  0.73929445  0.06072734
   0.01805649  0.08076507  0.88588883
   0.95263543  0.09266171  0.47604132
   0.24898256  0.42389360  0.93864042
   0.62027255  0.81850330  0.24994172
   0.06312945  0.00692377  0.22156444
   0.74604009  0.68678951  0.76870883
   0.45097234  0.12784005  0.78713604
   0.30692667  0.45841667  0.64942532
   0.00454299  0.38232546  0.19886219
   0.56532664  0.00301553  0.10585561
   0.73387276  0.07085222  0.34235457
   0.16660055  0.69094209  0.10570124
   0.49136231  0.83375390  0.66158895
   0.17467684  0.14209287  0.04623577
   0.85545699  0.37388700  0.47172049
   0.60346181  0.69879220  0.03807945
   0.74613620  0.33782919  0.06121875
   0.36137855  0.49410187  0.33837533
Direct configuration=   100
   0.37338909  0.89514972  0.30257316
   0.30100000  0.03259053  0.38058000
   0.30405405  0.01505310  0.22427104
   0.94470688  0.59753524  0.38107337
   0.90400000  0.57384178  0.22421016
   0.80212584  0.64430102  0.32450451
   0.09952889  0.28586381  0.58765229
   0.19398975  0.25795242  0.72917236
   0.22204161  0.18774078  0.58173973
   0.56810856  0.21248709  0.04938274
   0.41552190  0.20408238  0.11127217
   0.44463429  0.29124846  0.97382566
   0.83328492  0.86000879  0.91370897
   0.67365227  0.85358480  0.95335875
   0.78064559  0.78019111  0.05095823
   0.83889069  0.17433923  0.91119006
   0.83484241  0.08302772  0.04951139
   0.96368024  0.07312248  0.94989942
   0.05441206  0.03702022  0.61830597
   0.92974983  0.06361138  0.71265636
   0.92786530  0.09695240  0.54830654
   0.08259786  0.44393548  0.87427981
   0.06650453  0.29851612  0.95569257
   0.20544930  0.37814653  0.95025715
   0.75913793  0.93881053  0.20500231
   0.84150643  0.86895259  0.32695924
   0.68334682  0.83133943  0.29811992
   0.09591518  0.83380396  0.25715791
   0.04608674  0.87047050  0.41147968
   0.04722243  0.98118373  0.29075673
   0.84793856  0.78141258  0.66258334
   0.70524629  0.84449473  0.60082966
   0.70916340  0.73609278  0.72442926
   0.60844305  0.22336624  0.79000256
   0.68177054  0.11138070  0.69425204
   0.53032257  0.08407553  0.76146860
   0.20050255  0.48632653  0.49726817
   0.09828153  0.57218281  0.59443431
   0.22665025  0.49195738  0.65113126
   0.09468720  0.34701730  0.33921104
   0.14226375  0.20766169  0.25057504
   0.04235296  0.31579170  0.18485573
   0.46661434  0.98353684  0.94396614
   0.39948249  0.84959035  0.01866917
   0.51225027  0.94238072  0.09418456
   0.55712701  0.10581394  0.31977536
   0.53302641  0.03556681  0.46304094
   0.68335801  0.05481589  0.40913673
   0.21303312  0.68866231  0.91634561
   0.04783048  0.71238704  0.89235657
   0.11367702  0.67070341  0.03958406
   0.38792578  0.99274732  0.62731064
   0.25558860  0.89355268  0.63139619
   0.41977954  0.84041347  0.65822804
   0.24659634  0.05294809  0.88850889
   0.17765552  0.92263903  0.96414351
   0.17683942  0.06896362  0.03440060
   0.77251072  0.37932629  0.31887181
   0.84428835  0.23755213  0.26840299
   0.87901571  0.31649516  0.41408461
   0.46037968  0.60830437  0.09761389
   0.54653269  0.48391782  0.16125825
   0.61454931  0.62072208  0.09188506
   0.62674185  0.54883100  0.54765462
   0.52402134  0.55575113  0.68689877
   0.66201794  0.48026684  0.69119305
   0.53886920  0.41025249  0.60780528
   0.57544678  0.34237392  0.53996279
   0.55412283  0.58819370  0.49449552
   0.47859985  0.50673277  0.76447361
   0.74354051  0.43366840  0.65372864
   0.43586090  0.57927338  0.82349336
   0.56129496  0.59707299  0.38910471
   0.49629729  0.28143942  0.50358121
   0.80452701  0.40872005  0.72552066
   0.42472897  0.32146001  0.43679001
   0.49348538  0.66516977  0.35805851
   0.49574758  0.65459526  0.85023135
   0.88762831  0.36100440  0.68757761
   0.80494162  0.53741824  0.95973584
   0.67615226  0.44060619  0.92680266
   0.79907211  0.39608618  0.03639644
   0.21885051  0.60300730  0.26288717
   0.19791455  0.48162161  0.14387315
   0.30518905  0.46965362  0.26495148
   0.33453602  0.83172012  0.31398632
   0.42153487  0.90199116  0.35841721
   0.41194974  0.89534878  0.23927786
   0.28941562  0.10156068  0.35910810
   0.35539677  0.03508708  0.42889762
   0.23570831  0.01704237  0.41369797
   0.26458748  0.07550188  0.23351338
   0.92148439  0.62915036  0.44268281
   0.01176990  0.61700305  0.35519423
   0.94412267  0.52757453  0.39093633
   0.87658263  0.61473101  0.17066885
   0.87598213  0.50482138  0.22106337
   0.97714531  0.57048264  0.21110313
   0.76637409  0.65278504  0.26171798
   0.12852561  0.33722696  0.54268240
   0.06270435  0.32741295  0.63193873
   0.05428342  0.24341096  0.54890608
   0.26217003  0.23695338  0.74620406
   0.14988408  0.22447223  0.77666976
   0.18590793  0.32864237  0.74354396
   0.28039220  0.16058164  0.61815609
   0.59580970  0.24264961  0.11119130
   0.61516944  0.24907359  0.00296325
   0.57330196  0.13826212  0.05219071
   0.44162427  0.13709695  0.12939689
   0.34015576  0.20526479  0.09500970
   0.42356466  0.25270810  0.16791637
   0.37301475  0.30249355  0.97303896
   0.85437807  0.79887297  0.87327217
   0.88736351  0.88681929  0.95341520
   0.81052798  0.91704185  0.87037636
   0.62933126  0.83920353  0.01122917
   0.65323606  0.80484398  0.90227224
   0.65816094  0.91832311  0.91856333
   0.72234843  0.77271804  0.09380875
   0.77139638  0.18219602  0.93933809
   0.84820484  0.16267804  0.84175263
   0.88095049  0.23475293  0.92513745
   0.79468562  0.02206763  0.05069771
   0.79062732  0.13576294  0.06819271
   0.88191110  0.07526305  0.10569546
   0.97747622  0.02124588  0.00305939
   0.07848894  0.06327225  0.55343365
   0.07688051  0.96696163  0.62077162
   0.09222842  0.07449785  0.67003574
   0.85650625  0.08000502  0.71101423
   0.96809390  0.11282769  0.74901929
   0.93385598  0.00066916  0.74987535
   0.85587279  0.11235254  0.56462065
   0.13542181  0.48191894  0.84657888
   0.03347614  0.47816669  0.91541355
   0.05021694  0.40696729  0.81790655
   0.04832697  0.25482837  0.90069093
   0.00478526  0.32079533  0.98893324
   0.10509512  0.25742125  0.00509279
   0.22294073  0.32764374  0.00512763
   0.70274349  0.94032764  0.16524433
   0.82047548  0.93140473  0.16645147
   0.76432119  0.00593099  0.23697928
   0.86345173  0.93308426  0.35838179
   0.89092953  0.85023180  0.27564459
   0.83401629  0.81710813  0.37634924
   0.69138382  0.78969118  0.36062795
   0.14118471  0.78807265  0.29494457
   0.13661485  0.86007790  0.20315116
   0.04315350  0.79308812  0.22824923
   0.09321611  0.89300213  0.46383620
   0.04817414  0.79821271  0.41834493
   0.97613092  0.89115194  0.42934894
   0.02861310  0.02609752  0.34940432
   0.86895564  0.74458655  0.72177248
   0.88611500  0.84462283  0.64764858
   0.85660649  0.73586176  0.60614820
   0.72842365  0.81989401  0.53849745
   0.72027749  0.91687688  0.59695362
   0.62922136  0.83197689  0.60365416
   0.62917783  0.73740290  0.72331350
   0.60948835  0.27479417  0.73581645
   0.66563037  0.22656240  0.83339575
   0.54897185  0.22998208  0.82733219
   0.70301611  0.16779217  0.65610458
   0.66195946  0.04946569  0.66230916
   0.73838123  0.09513795  0.73763496
   0.54464556  0.01724918  0.73748116
   0.13729220  0.47792153  0.46496655
   0.24722101  0.43186120  0.50592084
   0.23954775  0.53693495  0.45549032
   0.07871038  0.60144221  0.53302728
   0.10737820  0.63234098  0.63649723
   0.04188665  0.53454755  0.62110545
   0.20272097  0.51553870  0.71451868
   0.03047258  0.37995260  0.34166575
   0.14041518  0.40318462  0.32909691
   0.11963236  0.30884972  0.39718244
   0.09247536  0.15570288  0.23906902
   0.17787725  0.19533544  0.31606966
   0.18852386  0.21270342  0.19404494
   0.04070770  0.26121073  0.13658847
   0.43296597  0.04731753  0.96267002
   0.43369544  0.95577701  0.88657410
   0.53666785  0.00337164  0.92276769
   0.40402750  0.81121854  0.07958938
   0.40646171  0.79510782  0.96902924
   0.33380134  0.87436265  0.01151367
   0.51815690  0.89383448  0.14803093
   0.56842575  0.17925445  0.32772119
   0.48897939  0.10649696  0.32326703
   0.57302081  0.08141425  0.25271083
   0.46817759  0.00880853  0.43994753
   0.52126858  0.09708466  0.50114228
   0.55714178  0.97949577  0.50239268
   0.70323529  0.01251210  0.46845820
   0.26215638  0.69617132  0.97384580
   0.22176665  0.74157165  0.86510018
   0.22683260  0.62763866  0.87948928
   0.05365903  0.78103928  0.87030258
   0.98331066  0.69915542  0.92853622
   0.05371593  0.66728530  0.83371754
   0.04348026  0.67096066  0.06777354
   0.36284648  0.01950183  0.56709617
   0.46066608  0.98865957  0.62447355
   0.37566426  0.03490218  0.68826293
   0.22488000  0.83622599  0.65962683
   0.24205035  0.88275735  0.55817134
   0.22750993  0.95819561  0.64899320
   0.39508881  0.76919704  0.67744755
   0.27337734  0.11779345  0.90985206
   0.19947983  0.05966043  0.83348509
   0.30069556  0.01095594  0.86035688
   0.15794664  0.90558682  0.03474687
   0.23917415  0.89294028  0.94585254
   0.12180763  0.90714304  0.92005660
   0.13895223  0.03123927  0.08341078
   0.78355842  0.40134802  0.25150200
   0.77611197  0.43555971  0.36230275
   0.70098784  0.35611735  0.31660788
   0.88408088  0.17937135  0.29375404
   0.87078976  0.26691948  0.20735008
   0.77803340  0.21272399  0.25440020
   0.92456647  0.25857604  0.42476190
   0.40885662  0.56811664  0.12871955
   0.44582554  0.60724598  0.02575851
   0.45875634  0.67546515  0.12553530
   0.52691679  0.42714539  0.11961473
   0.50449383  0.48526521  0.22226880
   0.61707921  0.47434154  0.17146899
   0.68498370  0.60589290  0.11336224
   0.47310824  0.43539522  0.58597742
   0.53365054  0.37738443  0.67767821
   0.67462821  0.59516621  0.57432478
   0.65826842  0.49692152  0.50846237
   0.47774173  0.58887764  0.64192601
   0.56746179  0.60832330  0.71602950
   0.63925491  0.43637786  0.74489642
   0.68482304  0.54568253  0.71595484
   0.52943451  0.46797950  0.80302798
   0.42831393  0.45402196  0.74979337
   0.53484197  0.65586773  0.51680522
   0.49862297  0.54205403  0.49452825
   0.62258305  0.29670837  0.57192280
   0.60957059  0.37426066  0.48298714
   0.77728270  0.47464321  0.59951079
   0.71059060  0.37751281  0.62057506
   0.47111342  0.25253294  0.56427572
   0.52892354  0.22662275  0.46539113
   0.37481358  0.35638773  0.47759026
   0.39738371  0.26580613  0.39991602
   0.45772583  0.36702185  0.38802436
   0.63539623  0.60488662  0.36947666
   0.53863428  0.53266782  0.36673656
   0.44162672  0.67602369  0.40861990
   0.46274821  0.64867889  0.29374839
   0.52114409  0.73448627  0.34281784
   0.40913025  0.54204135  0.87837933
   0.37471218  0.60598984  0.78861467
   0.47233606  0.67436287  0.91608291
   0.49602234  0.70721662  0.80207391
   0.56457792  0.63205241  0.86106581
   0.77081057  0.36463685  0.77639573
   0.81436333  0.46849770  0.77091814
   0.87505345  0.28950335  0.67376898
   0.94189864  0.36148512  0.73663061
   0.91100498  0.39183350  0.62642859
   0.65488736  0.37124385  0.92588989
   0.69068797  0.46653886  0.85577447
   0.79364706  0.57852023  0.02044173
   0.78025440  0.56939766  0.90009182
   0.61931555  0.48235464  0.94820570
   0.87637454  0.52597160  0.94971140
   0.86861402  0.41338887  0.05830315
   0.26751429  0.65595584  0.25042167
   0.21401108  0.58783390  0.33276973
   0.15746716  0.61740023  0.22757791
   0.19301102  0.52342774  0.08761813
   0.13002940  0.46077063  0.16970159
   0.23964242  0.42378593  0.11685830
   0.30192756  0.39905429  0.23568983
   0.31467732  0.97426192  0.30535510
   0.88402862  0.61541242  0.31030363
   0.17031108  0.23837880  0.63550393
   0.47438298  0.23504334  0.04004829
   0.76477191  0.83725421  0.97992880
   0.87775404  0.10202384  0.96302221
   0.96175291  0.05358375  0.62272934
   0.12029202  0.37481249  0.92828345
   0.75564289  0.88046836  0.28392375
   0.06879740  0.90113658  0.32090719
   0.75146310  0.79908449  0.67195935
   0.60139447  0.14042124  0.74477415
   0.18152465  0.52326504  0.58391050
   0.09058318  0.29061939  0.25917863
   0.46248319  0.92177917  0.02236716
   0.59358019  0.05359872  0.39155049
   0.12165648  0.69588795  0.95101125
   0.35652491  0.90400474  0.64260296
   0.20150648  0.01493099  0.96567462
   0.83796014  0.31257602  0.33552163
   0.54596177  0.56734062  0.11830574
   0.58610776  0.50006687  0.62999302
   0.75977180  0.45273277  0.97481142
   0.25433543  0.52214432  0.21469487
   0.32129759  0.98400045  0.14962552
   0.77080993  0.66053406  0.39897315
   0.20851343  0.17048524  0.50291225
   0.49543388  0.33020604  0.91889416
   0.84793119  0.73639652  0.07099439
   0.01730164  0.09741383  0.89007985
   0.96839953  0.10906823  0.47864266
   0.26075226  0.43003543  0.91521583
   0.61007719  0.83096150  0.25765689
   0.04378047  0.01184025  0.21384588
   0.75057257  0.67776233  0.76680225
   0.45902005  0.11128440  0.79287681
   0.28557034  0.43312640  0.64613031
   0.00204272  0.38542472  0.17567206
   0.56260824  0.01031744  0.09652292
   0.74592099  0.08562062  0.35928272
   0.17891628  0.65776252  0.08790837
   0.50075586  0.84436199  0.64282753
   0.19869842  0.14727593  0.04318893
   0.86271988  0.37516282  0.46966857
   0.60007843  0.68931689  0.04914715
   0.76341853  0.32750476  0.06751946
   0.34280940  0.49280570  0.33488343
Direct configuration=   150
   0.34889930  0.89022031  0.29795608
   0.28579327  0.01266550  0.37565081
   0.30221439  0.02352381  0.21637174
   0.96580794  0.58755015  0.38689873
   0.92194800  0.61684674  0.23101540
   0.80956514  0.62527826  0.34396283
   0.08990634  0.27676846  0.62212106
   0.19718057  0.26089864  0.74431528
   0.22908636  0.19554634  0.59793543
   0.56948280  0.21496630  0.06076181
   0.41662388  0.21269567  0.12209632
   0.44690178  0.28593769  0.97957957
   0.83993124  0.86202706  0.91931706
   0.67286914  0.83843457  0.91948878
   0.77756075  0.78081309  0.03721583
   0.83527329  0.17905724  0.91202218
   0.82590357  0.08030386  0.05159264
   0.95440060  0.08843187  0.95504695
   0.05290455  0.01599509  0.61422456
   0.91146859  0.06074675  0.69481303
   0.93067873  0.10632171  0.53841419
   0.08113332  0.44639661  0.88969948
   0.09186386  0.29563510  0.94937606
   0.22613010  0.37999548  0.92112237
   0.75775893  0.94167670  0.20423945
   0.83089916  0.86141622  0.33472684
   0.67583802  0.84098501  0.29972657
   0.06334877  0.83437337  0.26001361
   0.04661864  0.89137362  0.41623151
   0.02440197  0.98924383  0.28575638
   0.86086172  0.76717728  0.66282083
   0.73069930  0.84302160  0.61244699
   0.71530906  0.72801947  0.72394287
   0.59789983  0.23459340  0.77140757
   0.68366447  0.11521912  0.69338698
   0.54191531  0.08209075  0.75714819
   0.17972878  0.47507493  0.49446037
   0.09239423  0.56390607  0.60530061
   0.21802935  0.47646025  0.65428455
   0.10059745  0.35283776  0.31070585
   0.12744317  0.20410639  0.23904115
   0.03287541  0.31506498  0.16542479
   0.45489659  0.97211900  0.95311880
   0.41364449  0.83703237  0.03677276
   0.52265189  0.94417562  0.09603756
   0.57555236  0.10863789  0.30998330
   0.53161108  0.03387246  0.45304906
   0.68926161  0.06844940  0.41690744
   0.20399394  0.72321380  0.89917778
   0.03607632  0.72990951  0.89084685
   0.11149181  0.67864375  0.02216765
   0.38599991  0.00541028  0.63441902
   0.26142808  0.88927986  0.64148084
   0.42286543  0.84609692  0.63676050
   0.23631259  0.05902176  0.87207650
   0.17287676  0.93762066  0.95924013
   0.19894903  0.07955816  0.03057019
   0.76179706  0.38033137  0.32046735
   0.84823962  0.25223347  0.26920232
   0.89108055  0.31777570  0.41005912
   0.44500614  0.57994820  0.08914100
   0.55064870  0.47769326  0.17751946
   0.60990478  0.60657823  0.11010237
   0.60800531  0.54539489  0.53723490
   0.51234550  0.54956982  0.67557315
   0.66485435  0.48014973  0.68876049
   0.54120177  0.40299408  0.60289910
   0.58910217  0.34156071  0.53953632
   0.53585020  0.60344450  0.49570143
   0.46954529  0.51073100  0.75724483
   0.75456056  0.42954240  0.65438997
   0.42541408  0.58264992  0.81341511
   0.53966422  0.60361090  0.39253572
   0.51994435  0.27917270  0.49997657
   0.81940184  0.39757347  0.73667870
   0.44580779  0.32604333  0.45212001
   0.47502516  0.66398893  0.34856798
   0.49498152  0.64526894  0.85792994
   0.88988878  0.33528879  0.69944066
   0.81932664  0.53988709  0.96946046
   0.68809509  0.43187902  0.94977639
   0.80584213  0.39538967  0.04380291
   0.22345661  0.59787353  0.24657468
   0.19784234  0.46646415  0.14556121
   0.29989472  0.45776788  0.27232469
   0.30921928  0.86046456  0.34996736
   0.41731600  0.87176970  0.31573970
   0.33221371  0.86693037  0.23242697
   0.26247808  0.08120463  0.37749854
   0.33198085  0.00666326  0.43321636
   0.22984316  0.96837043  0.38724598
   0.28938440  0.09827417  0.22399514
   0.93140726  0.59929178  0.44942442
   0.02212065  0.63218963  0.37368835
   0.98748679  0.51402910  0.38081070
   0.86756412  0.63638578  0.18656154
   0.95249344  0.55580122  0.20162160
   0.97252702  0.66853300  0.22308216
   0.76163254  0.62937110  0.28443027
   0.08851099  0.29453393  0.55177756
   0.06823229  0.33518930  0.65815498
   0.03935217  0.22053099  0.62867231
   0.26182124  0.22584416  0.76196704
   0.14806004  0.22968848  0.79122971
   0.20838205  0.33026191  0.75794167
   0.29385224  0.17844210  0.62882291
   0.59813570  0.24857342  0.11915285
   0.60953587  0.24705246  0.00852252
   0.58511838  0.14468727  0.06611484
   0.41814995  0.14243829  0.13643861
   0.35079171  0.22785243  0.10168219
   0.43443895  0.24784374  0.18299766
   0.37125159  0.29250528  0.97711891
   0.83418300  0.84372628  0.85064123
   0.90084068  0.82591036  0.94449288
   0.84511410  0.93311660  0.92256495
   0.62029251  0.82042462  0.96308857
   0.65994470  0.80102719  0.85627124
   0.66736464  0.90891893  0.90358417
   0.71777219  0.75629055  0.07315196
   0.76282197  0.17470441  0.92113210
   0.86113166  0.15195937  0.84827780
   0.85967439  0.24579740  0.92221138