unknown system                          
           1
    15.000000    0.000000    0.000000
     0.000000   15.000000    0.000000
     0.000000    0.000000   15.000000
   C    H    N    O 
  80 188  25  24
Direct configuration=    50
   0.43951836  0.25491448  0.45436143
   0.36868197  0.21485634  0.30515677
   0.50060889  0.31251365  0.32278262
   0.94079978  0.90323100  0.50561699
   0.87689297  0.75591596  0.55728136
   0.02725560  0.76130157  0.48526826
   0.20639359  0.12125429  0.87795548
   0.14058237  0.25305837  0.81081894
   0.27900300  0.19190584  0.75496979
   0.59060675  0.21160131  0.11931300
   0.58023220  0.24566054  0.96050462
   0.45958319  0.17106978  0.03131679
   0.87315253  0.78331083  0.83627387
   0.90267907  0.73886105  0.98577667
   0.74239332  0.76136487  0.93485878
   0.75912144  0.52515730  0.95473205
   0.79982213  0.37131902  0.00691487
   0.91264709  0.46785603  0.93949349
   0.76609250  0.09760635  0.77091539
   0.84744992  0.13384189  0.63509534
   0.72067208  0.23326136  0.68187863
   0.05037137  0.56616250  0.27246077
   0.00716759  0.60004871  0.11288195
   0.96904402  0.45869919  0.18688370
   0.65272946  0.01161890  0.99660812
   0.60422136  0.96052355  0.14840470
   0.74392259  0.04307726  0.12814170
   0.76219117  0.82952293  0.30314619
   0.91029100  0.89706024  0.28128026
   0.88457522  0.74469951  0.23972233
   0.39745226  0.92828880  0.77045318
   0.54913572  0.99137914  0.80714057
   0.48913216  0.86597954  0.89218356
   0.56891015  0.07731221  0.55170632
   0.60321588  0.10758873  0.39181274
   0.69896378  0.01265318  0.47674392
   0.23397325  0.09893561  0.57040390
   0.15980617  0.95906132  0.61778667
   0.30147582  0.95874478  0.52115861
   0.35448729  0.41413811  0.12726844
   0.19564224  0.38074336  0.08977449
   0.32277466  0.36506659  0.98038570
   0.95618027  0.14706531  0.34744477
   0.06109542  0.19288574  0.22466389
   0.10510943  0.06706389  0.32055462
   0.36809834  0.97093748  0.26803565
   0.35003510  0.92801794  0.10907032
   0.41987406  0.83002974  0.21502707
   0.32811410  0.61087326  0.25816523
   0.31019821  0.70466368  0.39269942
   0.23316838  0.74583566  0.26009722
   0.21397119  0.62374327  0.72332337
   0.17893605  0.69473208  0.86114661
   0.22826036  0.54238614  0.86131993
   0.62256222  0.77580013  0.62094418
   0.49843656  0.83638078  0.51108335
   0.60263867  0.71817139  0.46457168
   0.97451117  0.04732170  0.93748345
   0.07362218  0.00310308  0.06159404
   0.08325179  0.92807191  0.91098953
   0.80648880  0.50443538  0.43805071
   0.75513402  0.46195901  0.29425292
   0.82633385  0.35205448  0.38711077
   0.88683945  0.41100274  0.68471848
   0.03658459  0.47720527  0.71563752
   0.90044081  0.57125343  0.72675450
   0.08525118  0.26481917  0.52360574
   0.06839082  0.41252431  0.45179512
   0.20943353  0.37120303  0.51428234
   0.54338211  0.64399828  0.07047282
   0.62946525  0.66899708  0.20470786
   0.57332238  0.52173192  0.17066806
   0.61194235  0.45394506  0.63881664
   0.56767628  0.53538652  0.76709312
   0.51404469  0.38282111  0.76000669
   0.44143126  0.49223209  0.66281842
   0.43250529  0.57877531  0.61349430
   0.59088358  0.44011276  0.54157371
   0.50438121  0.56309287  0.85017275
   0.48070437  0.30484186  0.70417717
   0.38582315  0.29086965  0.48985794
   0.50601377  0.27999055  0.46880960
   0.42795771  0.18228985  0.47322950
   0.38753538  0.21093082  0.23490549
   0.30188680  0.24355526  0.31381564
   0.37001995  0.14435209  0.33133936
   0.51226921  0.30006049  0.25038334
   0.99472563  0.92783716  0.45913786
   0.94488777  0.92755966  0.57381444
   0.87450027  0.91755489  0.48237368
   0.86226040  0.69832291  0.51924190
   0.81956758  0.79973309  0.55502819
   0.89858578  0.74265486  0.62707702
   0.02799864  0.68995245  0.49809659
   0.26785614  0.07688602  0.87729935
   0.14958461  0.07467173  0.86400544
   0.18962215  0.14396164  0.94568716
   0.12179598  0.27892929  0.87567972
   0.08683732  0.23259041  0.76641873
   0.16799352  0.31472928  0.78068498
   0.27102699  0.25232364  0.71175574
   0.61714287  0.27687459  0.13788057
   0.65107931  0.17096340  0.13036250
   0.54519018  0.19207061  0.17641021
   0.53616716  0.24051684  0.90514464
   0.64645855  0.21731226  0.94488486
   0.59371749  0.31449940  0.97612038
   0.43129157  0.17515634  0.96270729
   0.89926280  0.84927058  0.85351531
   0.82433839  0.78822369  0.78354849
   0.92960767  0.74319539  0.82148531
   0.94624010  0.79734280  0.98902695
   0.93756960  0.68020842  0.96078945
   0.87574378  0.72892939  0.05372775
   0.72847443  0.73947425  0.00571576
   0.72475446  0.54396057  0.01727866
   0.70229804  0.49125259  0.91458192
   0.78858966  0.58213948  0.92190972
   0.74911422  0.34159559  0.95764864
   0.76430735  0.38251448  0.07078447
   0.85776047  0.32824815  0.01079126
   0.95712391  0.40947718  0.95080052
   0.82644060  0.11045193  0.80890494
   0.77036368  0.02375297  0.75365028
   0.70634291  0.11435991  0.80614865
   0.85194667  0.06427993  0.61350500
   0.90772794  0.14703292  0.67849702
   0.85192289  0.17685189  0.57683214
   0.72812806  0.27174054  0.61402383
   0.12018278  0.56609084  0.25684577
   0.03887683  0.51165617  0.31903020
   0.03210965  0.63657903  0.29143600
   0.95487984  0.58161953  0.06397288
   0.07153437  0.60499450  0.07767853
   0.99911769  0.67122384  0.14618142
   0.93934265  0.44269359  0.12078807
   0.69816593  0.06063466  0.96817454
   0.58307168  0.02720846  0.98505625
   0.66968851  0.94445921  0.96331314
   0.60945173  0.97762687  0.21844089
   0.61158953  0.88694140  0.15001289
   0.53952466  0.97210131  0.12032664
   0.74524807  0.02967890  0.20340878
   0.71347808  0.79477976  0.26119213
   0.74987597  0.90210719  0.29884628
   0.75312359  0.80175631  0.37187561
   0.97697563  0.87475577  0.25104586
   0.91824428  0.91574418  0.35183327
   0.88576476  0.95035618  0.23599134
   0.96120679  0.75132025  0.23737146
   0.40080747  0.98678378  0.72546898
   0.33719730  0.93226605  0.81420816
   0.39419837  0.87046183  0.72349288
   0.52966213  0.06058768  0.80712417
   0.57565296  0.97439014  0.73949325
   0.60031026  0.99123590  0.86081347
   0.56019988  0.86786537  0.91582612
   0.50317120  0.04464950  0.54263444
   0.55773302  0.15005229  0.55200960
   0.60151901  0.06016448  0.61507235
   0.62610515  0.06894136  0.33574040
   0.63692287  0.17500452  0.38490685
   0.53315510  0.12540082  0.38596205
   0.73614783  0.01732835  0.41314970
   0.21936742  0.12805497  0.50711037
   0.30474817  0.12319549  0.58603425
   0.17909496  0.11660724  0.62119004
   0.15879097  0.98553836  0.68477070
   0.17458447  0.88755132  0.61852745
   0.10205838  0.97031490  0.57640010
   0.29612611  0.88541585  0.52360842
   0.35603959  0.36044584  0.17709312
   0.34037471  0.47865891  0.15591407
   0.41947186  0.41664464  0.09793507
   0.15465673  0.34594043  0.04025610
   0.16070373  0.44055172  0.11879673
   0.19812016  0.33954702  0.14952226
   0.26771252  0.34966164  0.93495424
   0.94892021  0.21524837  0.37685050
   0.95176778  0.10812966  0.40839903
   0.90059930  0.13243156  0.30035831
   0.01029708  0.18576345  0.17225111
   0.12712020  0.18127856  0.19448620
   0.05746930  0.26242258  0.24435016
   0.16808603  0.07067326  0.27694680
   0.40953299  0.03397102  0.26362827
   0.37511164  0.93710743  0.33221544
   0.29876203  0.99619840  0.26316225
   0.37983222  0.98782487  0.07924923
   0.27695582  0.93309645  0.11409393
   0.36249244  0.87064430  0.06671756
   0.40781032  0.78430561  0.15893040
   0.27345262  0.56873646  0.23056739
   0.36337269  0.57217838  0.30663800
   0.36545799  0.63759830  0.19992150
   0.25499069  0.74775177  0.42190571
   0.37565267  0.73554718  0.39857046
   0.31130547  0.64113066  0.43254598
   0.21694725  0.80159036  0.30661640
   0.21371998  0.55652069  0.69420636
   0.27350066  0.65799744  0.69737212
   0.15581526  0.66285685  0.70181821
   0.18423677  0.68802114  0.93650199
   0.10759274  0.70637043  0.84180936
   0.22082608  0.75612638  0.84891728
   0.22029688  0.54890516  0.93343819
   0.68793227  0.74408196  0.61378393
   0.58040572  0.73707195  0.66363102
   0.63185385  0.84183519  0.65245331
   0.44273576  0.79130459  0.50523443
   0.50501448  0.88461312  0.45481740
   0.48845199  0.87270006  0.57761062
   0.55725902  0.73160413  0.40393079
   0.96050796  0.02465861  0.86861287
   0.00262721  0.11656609  0.93369039
   0.91284282  0.04959055  0.98189359
   0.08716604  0.07567438  0.06923816
   0.14092037  0.96939052  0.07375998
   0.02670723  0.99506949  0.11770058
   0.13957005  0.89124563  0.94228468
   0.86355499  0.54299851  0.41927326
   0.81526779  0.47539940  0.50772518
   0.75219453  0.55209752  0.44320941
   0.68804023  0.48480559  0.30889774
   0.75064728  0.40405893  0.24923854
   0.79500988  0.51895065  0.26762183
   0.80960688  0.31398984  0.32418945
   0.81638148  0.42588502  0.70702092
   0.91475887  0.35149925  0.71366382
   0.87964221  0.40489790  0.60796490
   0.05949603  0.53077087  0.75568565
   0.06614095  0.48285161  0.64560268
   0.05645127  0.41546527  0.75073389
   0.94968086  0.62892414  0.74527207
   0.13347065  0.22583601  0.56652957
   0.06815114  0.21280537  0.47043094
   0.02324615  0.28261277  0.55957598
   0.03387355  0.39887765  0.38356879
   0.11109587  0.47320399  0.44441525
   0.01596725  0.43015354  0.50315520
   0.23050284  0.43755078  0.49215537
   0.50929048  0.71113776  0.07729545
   0.49094795  0.59621904  0.04705166
   0.59271810  0.65394871  0.01653815
   0.60041654  0.73425063  0.22682234
   0.69011938  0.68276807  0.16548101
   0.64989788  0.63825326  0.26673613
   0.57574389  0.50369910  0.24573028
   0.39443556  0.49236391  0.71604606
   0.42830990  0.43465466  0.61680854
   0.65492475  0.51303753  0.64193943
   0.64623842  0.39843760  0.66522846
   0.59497657  0.59629710  0.73587211
   0.62302723  0.50441798  0.79832167
   0.45799109  0.40173920  0.80436014
   0.57686463  0.36783028  0.79931445
   0.48232526  0.50660964  0.88795619
   0.44819169  0.60242287  0.82805916
   0.53855583  0.61414541  0.89296867
   0.65743781  0.41065088  0.51920606
   0.58149012  0.50297198  0.51246300
   0.55132649  0.38353181  0.52019291
   0.47168533  0.58413552  0.54937461
   0.44602226  0.63326788  0.66097125
   0.35785960  0.58261426  0.59853101
   0.52588322  0.28797150  0.64416769
   0.41254175  0.31125569  0.67768126
   0.47930047  0.24761893  0.74522653
   0.43589163  0.26541407  0.35924506
   0.95332460  0.80578559  0.51558917
   0.21710914  0.19428274  0.81787476
   0.54280730  0.20387132  0.03894347
   0.83036289  0.75609546  0.91802965
   0.82497986  0.45711578  0.97196532
   0.76917444  0.15012205  0.68829377
   0.00711346  0.53800524  0.18721591
   0.66726362  0.00992244  0.09358682
   0.85444041  0.82327735  0.27158929
   0.47841375  0.92811178  0.82644766
   0.62730806  0.06841855  0.47809928
   0.24094360  0.00253443  0.56955710
   0.28784109  0.39173839  0.06159979
   0.04542015  0.13447176  0.30217012
   0.38661472  0.91443203  0.19404999
   0.28481010  0.68517828  0.30274839
   0.21564153  0.62021701  0.82018136
   0.58563721  0.78094913  0.53004953
   0.04451898  0.98253408  0.97156945
   0.79784155  0.43499627  0.37542375
   0.94173167  0.48692975  0.71115848
   0.12663219  0.34342896  0.48561236
   0.56846019  0.61294985  0.15961084
   0.53066052  0.46936775  0.70494926
   0.55542832  0.36346333  0.35907339
   0.08770076  0.79820411  0.44027840
   0.33454170  0.13275751  0.74280208
   0.41555931  0.14179157  0.09881871
   0.68799814  0.78347335  0.87559862
   0.94236676  0.53705703  0.90364796
   0.67404659  0.25713883  0.74408697
   0.97141355  0.40567181  0.25137868
   0.80870529  0.08339081  0.09917986
   0.84117849  0.67813822  0.22121472
   0.42970800  0.81203164  0.90669871
   0.73256230  0.96091765  0.53351408
   0.35660408  0.00252202  0.47455765
   0.40253415  0.35882080  0.95849296
   0.09341330  0.01528435  0.38422815
   0.45614445  0.80552018  0.28560311
   0.20452409  0.74105545  0.18210711
   0.26641808  0.47653203  0.82906691
   0.65325120  0.65012052  0.47357013
   0.06532700  0.92017081  0.83058588
   0.85938660  0.31806413  0.45333408
   0.81940566  0.57776171  0.72517202
   0.26219725  0.32617058  0.55806045
   0.56102448  0.46510753  0.11502344
Direct configuration=   100
   0.44627558  0.25424726  0.47455108
   0.36345551  0.22475884  0.33255956
   0.49842179  0.32839146  0.33291246
   0.94900698  0.90303180  0.51612380
   0.88633268  0.74675041  0.53913811
   0.02789264  0.76749301  0.46130237
   0.20708285  0.12410369  0.86329617
   0.14208625  0.26703989  0.81481410
   0.28207223  0.21249722  0.74575588
   0.58801281  0.21792946  0.11445917
   0.58436719  0.25372596  0.95651186
   0.45880051  0.16922959  0.02277043
   0.87700523  0.81282991  0.83316208
   0.89628521  0.73435410  0.98548598
   0.75170029  0.76481495  0.92895594
   0.76890125  0.53279040  0.96707010
   0.79838593  0.37298469  0.00426878
   0.91693215  0.46580174  0.93165146
   0.77821998  0.09809741  0.76157402
   0.85571321  0.14292999  0.61353630
   0.74714987  0.23291440  0.68444118
   0.04367302  0.56961140  0.28842506
   0.03648564  0.58759545  0.12402634
   0.97702762  0.45305356  0.18353945
   0.65165479  0.01177262  0.01055570
   0.59061438  0.95644675  0.15686849
   0.74259333  0.03110363  0.13789020
   0.77427375  0.82899641  0.31141713
   0.91864174  0.90025991  0.27708001
   0.88882993  0.75402584  0.21961419
   0.39128404  0.92919282  0.78114802
   0.54375007  0.97562322  0.80011571
   0.49217037  0.85085053  0.88548797
   0.59976499  0.07973067  0.57007069
   0.60004282  0.10158819  0.39879100
   0.69946724  0.99783646  0.47735479
   0.23738936  0.10092312  0.55785324
   0.15887480  0.95643564  0.60278955
   0.29930064  0.96039674  0.52532421
   0.34036224  0.41194073  0.12969489
   0.19290975  0.34272717  0.08704524
   0.31756656  0.35007297  0.97844389
   0.95256063  0.11842916  0.32336787
   0.05794470  0.19223087  0.22438580
   0.10951488  0.08236166  0.33188173
   0.36756813  0.97523045  0.25363456
   0.35658210  0.92631181  0.09702413
   0.43333496  0.83044529  0.20713569
   0.31957664  0.61092851  0.25820453
   0.28691889  0.70145339  0.40024519
   0.21710307  0.73213942  0.25952933
   0.22433220  0.64082773  0.72047349
   0.16305444  0.69486962  0.86076549
   0.23534346  0.55148361  0.85431387
   0.61655475  0.76146880  0.61018006
   0.49483048  0.83918266  0.52332942
   0.59197979  0.72029857  0.45560521
   0.97375953  0.05066615  0.94295120
   0.07340657  0.98917990  0.07276970
   0.08871836  0.93706064  0.91881495
   0.82188152  0.49814060  0.45674447
   0.75195706  0.47447846  0.30374045
   0.81241015  0.35057235  0.38979309
   0.86981278  0.40103317  0.71593111
   0.01653339  0.47770123  0.71104664
   0.88463990  0.56259526  0.72317742
   0.08908576  0.27289616  0.53270819
   0.06094015  0.40796436  0.45326556
   0.20622077  0.37906329  0.51322615
   0.53382173  0.63922127  0.07810618
   0.60229144  0.67266082  0.22478884
   0.57286258  0.51910041  0.18208885
   0.60948325  0.46024823  0.64408378
   0.55884102  0.55501145  0.76356782
   0.52232270  0.38888127  0.75676702
   0.44049280  0.49033686  0.65918892
   0.43204991  0.58505261  0.61809534
   0.59392315  0.43832917  0.54350420
   0.50343884  0.57679969  0.83900868
   0.50126499  0.30221369  0.70750863
   0.40616862  0.30652469  0.50445217
   0.51553850  0.26160387  0.49594063
   0.41689679  0.19010842  0.49177018
   0.37166093  0.23350795  0.26193374
   0.30559929  0.26469609  0.35542067
   0.35483810  0.15381151  0.34827483
   0.47338682  0.36101220  0.26766959
   0.99787459  0.92923497  0.47348154
   0.94731234  0.91716368  0.58885177
   0.87910318  0.91861976  0.48901540
   0.90980666  0.67655164  0.52773574
   0.83030453  0.75740276  0.49086509
   0.86817416  0.77006837  0.60603513
   0.03090257  0.68966031  0.46050072
   0.26347669  0.08275752  0.84994008
   0.14931298  0.08275713  0.85467842
   0.21182570  0.14739415  0.93420233
   0.14113820  0.28835297  0.88590724
   0.08069198  0.23248750  0.79250297
   0.14584798  0.32584781  0.77032444
   0.27450320  0.27416754  0.70659297
   0.58508384  0.28467624  0.14662441
   0.66071623  0.21498000  0.10586432
   0.57150065  0.17396867  0.16541882
   0.54898879  0.23570052  0.89045112
   0.65126878  0.22347283  0.95331445
   0.59265242  0.32769405  0.96766091
   0.43760367  0.17925252  0.95197910
   0.90879055  0.87945223  0.83360935
   0.81563005  0.81504660  0.78934725
   0.92614700  0.76066255  0.80920146
   0.93795944  0.78393787  0.02186700
   0.93777776  0.67732897  0.96170005
   0.85416848  0.70634339  0.04104699
   0.74260360  0.73145610  0.99382081
   0.77096000  0.57353737  0.02834988
   0.70132830  0.50670233  0.97112089
   0.77614306  0.57376196  0.90762400
   0.73414379  0.36100583  0.97797896
   0.78965182  0.38088141  0.07752859
   0.84116381  0.31704409  0.98643874
   0.96232227  0.40093748  0.93373467
   0.79762363  0.13500004  0.82467543
   0.82731312  0.04774156  0.75462885
   0.70956003  0.07188672  0.76389026
   0.84363476  0.07500468  0.58306085
   0.92110456  0.14445815  0.64172084
   0.84719793  0.19429515  0.56044828
   0.75376521  0.27277810  0.62630211
   0.11674226  0.56015975  0.30542198
   0.99740555  0.54371822  0.33849566
   0.02848487  0.63883105  0.28315592
   0.98058788  0.59462204  0.08333124
   0.08170760  0.54626993  0.08079172
   0.07014294  0.64638476  0.13711945
   0.94962572  0.45538299  0.11394229
   0.71410806  0.03345181  0.97827269
   0.59602749  0.06083555  0.00008165
   0.63348708  0.95308018  0.97503297
   0.62116910  0.91772766  0.21118383
   0.55892090  0.90369857  0.11794968
   0.53524340  0.00305812  0.17864530
   0.75197028  0.02159633  0.20750959
   0.72123278  0.79563732  0.27154160
   0.75739699  0.89857251  0.31335890
   0.76896977  0.79603387  0.37560143
   0.98620695  0.88945768  0.28810998
   0.89285676  0.93402030  0.33489809
   0.90765146  0.93840213  0.21526898
   0.95331040  0.76525677  0.18418516
   0.36229018  0.99719624  0.78134438
   0.34652802  0.87591837  0.80511329
   0.41905364  0.92528785  0.71342200
   0.53333494  0.04747198  0.82050079
   0.54506159  0.97300235  0.72777478
   0.60461512  0.95756143  0.83306477
   0.55675336  0.85506835  0.91710717
   0.52970310  0.05858489  0.56548186
   0.60656692  0.14772750  0.59617345
   0.63308071  0.02734370  0.61047542
   0.60264662  0.05262295  0.34259701
   0.62904497  0.16582862  0.37916835
   0.52788730  0.11028775  0.40862741
   0.72247881  0.98195395  0.40857976
   0.22502851  0.11036155  0.48420194
   0.30205735  0.12474175  0.57617466
   0.18700814  0.13455435  0.59508927
   0.15535298  0.97024289  0.67540080
   0.17156343  0.88626351  0.58920696
   0.09995308  0.97974054  0.56316322
   0.28551948  0.88794707  0.53161241
   0.34434090  0.36585716  0.18765586
   0.31731535  0.47990601  0.14853247
   0.40802466  0.41923652  0.09958895
   0.15520010  0.32620100  0.02513233
   0.15923232  0.39401417  0.12389845
   0.18918244  0.28537024  0.13585239
   0.26578228  0.31410399  0.93715039
   0.92918908  0.17570099  0.36027799
   0.94320783  0.06453319  0.37446604
   0.91430279  0.10875396  0.26244744
   0.02984794  0.16701574  0.16027277
   0.12990956  0.20104648  0.21206671
   0.01809970  0.25538345  0.23592165
   0.17229122  0.09993021  0.29804488
   0.37178398  0.03997918  0.22138450
   0.41427069  0.97252387  0.31033594
   0.29885592  0.97350079  0.27783962
   0.36074793  0.00018181  0.09521869
   0.28688212  0.90272177  0.08369084
   0.39618108  0.88955930  0.04478049
   0.45601671  0.79249640  0.14729506
   0.27794950  0.58330592  0.20843856
   0.33656635  0.55410089  0.30594553
   0.37584962  0.64444974  0.22446753
   0.23177123  0.68591122  0.44293162
   0.29964890  0.77635711  0.40603000
   0.34511087  0.67000070  0.42700903
   0.17867408  0.77839627  0.30064904
   0.25776911  0.57996547  0.69845324
   0.26158011  0.70556422  0.70914803
   0.16233236  0.64787663  0.68298818
   0.17014686  0.68275549  0.93107411
   0.09434574  0.70365242  0.83965493
   0.19261380  0.75965212  0.85212382
   0.22390983  0.55736932  0.92971283
   0.64143695  0.69272576  0.60968906
   0.56464993  0.77848280  0.66327467
   0.68131445  0.79856334  0.61784595
   0.44501405  0.81078949  0.57348465
   0.47006065  0.83790090  0.45643304
   0.51075047  0.90385714  0.54531091
   0.55597542  0.74325585  0.39719714
   0.91901973  0.00267525  0.93351183
   0.98651269  0.08192047  0.87918103
   0.95831859  0.09500885  0.99696200
   0.10390760  0.04695332  0.10908790
   0.11753540  0.93557427  0.07754700
   0.01132230  0.97611320  0.10912415
   0.14097943  0.89696639  0.95141029
   0.89355100  0.52381108  0.45476680
   0.81947520  0.46190221  0.51844195
   0.77507554  0.55429692  0.46477072
   0.68846860  0.50846248  0.32465974
   0.73369029  0.41448103  0.26562269
   0.79191319  0.52314180  0.26891708
   0.79089557  0.31285852  0.33084355
   0.79919766  0.41514054  0.71208682
   0.88793714  0.36638064  0.78098921
   0.89286186  0.35552310  0.66681419
   0.04827948  0.50147058  0.77588279
   0.04554954  0.50982979  0.65493396
   0.02903867  0.40288830  0.70322514
   0.93084790  0.61698172  0.72649111
   0.10176324  0.26003711  0.60248188
   0.11955208  0.21984133  0.49777115
   0.01674540  0.26685675  0.52664666
   0.04338311  0.37511540  0.39400766
   0.08549915  0.47223187  0.43345292
   0.99753453  0.41556976  0.48605420
   0.22285255  0.44353220  0.48140296
   0.47929092  0.68260084  0.09119691
   0.51077542  0.58951046  0.03412853
   0.58329649  0.68257280  0.04415945
   0.54311003  0.71348790  0.23755189
   0.66453417  0.70475354  0.20029796
   0.62092736  0.64155510  0.28932083
   0.60439391  0.50701754  0.24473458
   0.39083149  0.47627425  0.71454921
   0.43456659  0.43814579  0.60995449
   0.65467912  0.51800535  0.65045851
   0.64969260  0.40092918  0.67204132
   0.56263625  0.61226878  0.72202197
   0.62606022  0.54878735  0.79560325
   0.46699647  0.40170725  0.80112612
   0.58565327  0.38370108  0.78987407
   0.52046678  0.52809584  0.89384531
   0.42991883  0.57433902  0.82994822
   0.52119640  0.64389945  0.86049306
   0.64659257  0.39726472  0.51525671
   0.58302510  0.50125806  0.50535318
   0.54298662  0.38685250  0.54210853
   0.48658042  0.59743006  0.57570101
   0.43085351  0.63333644  0.67287320
   0.37428607  0.59132994  0.57497951
   0.56171563  0.26605364  0.68303688
   0.45341400  0.30681365  0.65145391
   0.46874906  0.25910030  0.75722792
   0.44450313  0.26344072  0.37444994
   0.95948430  0.80308166  0.51044938
   0.21156971  0.20352315  0.80018020
   0.54149870  0.21134099  0.03214631
   0.84110247  0.77989736  0.91710957
   0.82958120  0.45688671  0.96626692
   0.79399701  0.15604138  0.68873699
   0.00701661  0.53705635  0.20241504
   0.66373525  0.99842206  0.10581617
   0.86544380  0.82129663  0.26889757
   0.47269646  0.92170947  0.83379871
   0.63302069  0.06206697  0.48043838
   0.23696947  0.00420410  0.56810848
   0.28119147  0.37337790  0.06225883
   0.04273066  0.12995159  0.29466362
   0.38438722  0.90460098  0.18764010
   0.26846247  0.67664810  0.30606510
   0.20437846  0.62504176  0.81456863
   0.57136390  0.78058132  0.52689417
   0.05268954  0.99938412  0.97533182
   0.79894171  0.43828522  0.38288845
   0.91985206  0.48299834  0.70867322
   0.11923328  0.35964072  0.50974649
   0.57706156  0.60481949  0.15839957
   0.53123947  0.47492838  0.70183389
   0.56954034  0.35719383  0.36108752
   0.08664906  0.80852216  0.42190120
   0.34444481  0.15924332  0.74123952
   0.42434347  0.12746840  0.08235064
   0.69450212  0.78915145  0.87512745
   0.94625792  0.53711524  0.90043801
   0.69890819  0.25836184  0.74953786
   0.97748172  0.38630047  0.23183863
   0.80126521  0.07344062  0.09390202
   0.84081284  0.68508995  0.21288626
   0.43626461  0.78955604  0.90143032
   0.72903209  0.95599327  0.54189722
   0.36300442  0.99118830  0.48538272
   0.39461517  0.36367801  0.94680738
   0.10113708  0.02218527  0.38703334
   0.45307334  0.80632984  0.28595914
   0.21283015  0.73023033  0.17729792
   0.25080897  0.48101684  0.81419068
   0.64786700  0.65780905  0.45516042
   0.06849300  0.92134750  0.84041520
   0.85133530  0.31920275  0.45684284
   0.80280362  0.58118867  0.72449427
   0.26602387  0.33608763  0.54935513
   0.54625348  0.45371212  0.13515849
Direct configuration=   150
   0.46038393  0.25046221  0.48355420
   0.35276487  0.24418881  0.35318823
   0.50271117  0.31272301  0.34008001
   0.95868221  0.88906014  0.52622705
   0.89400534  0.73452311  0.53431956
   0.01908465  0.77192999  0.44007268
   0.20741236  0.12843675  0.84613388
   0.14107836  0.28095029  0.79987176
   0.28663361  0.23593096  0.75048088
   0.57318669  0.23596128  0.11191512
   0.57477529  0.26736917  0.94767845
   0.47037973  0.16425723  0.01141181
   0.87552605  0.83004859  0.83574770
   0.90862798  0.75510767  0.97511062
   0.75259107  0.77845289  0.92590213
   0.78317139  0.53936885  0.97793850
   0.80718197  0.37340225  0.00463923
   0.91641531  0.46398111  0.93402147
   0.81564020  0.09249228  0.74741121
   0.85783750  0.13636630  0.60064947
   0.77284897  0.24102602  0.69135095
   0.02320553  0.55427432  0.28808255
   0.05921334  0.58666842  0.12615650
   0.00304166  0.44313407  0.18053565
   0.64518188  0.00006688  0.01109527
   0.59613334  0.95713835  0.16750308
   0.74545261  0.02363685  0.14693080
   0.78993154  0.82045269  0.31722811
   0.92874269  0.89661932  0.27092481
   0.89310683  0.75402278  0.20918425
   0.37654485  0.92300803  0.79838751
   0.53802701  0.96254490  0.79692158
   0.48859243  0.82881364  0.86845721
   0.61338995  0.09425283  0.57613277
   0.59879298  0.09090089  0.41077768
   0.69650976  0.97735510  0.48179640
   0.24223498  0.09626871  0.55188337
   0.16075796  0.96276450  0.59707559
   0.30840307  0.95376208  0.52472282
   0.32608609  0.40586432  0.11861090
   0.19326231  0.30961267  0.08025708
   0.31910214  0.33757924  0.96915561
   0.94880044  0.10989366  0.30970588
   0.05707133  0.19365498  0.22632299
   0.10903705  0.08921530  0.33285879
   0.35556147  0.97153735  0.24581063
   0.35188761  0.90907777  0.08414261
   0.42275605  0.83043931  0.20887767
   0.31862483  0.60826677  0.27956137
   0.26382534  0.69231545  0.40356307
   0.20981042  0.73505236  0.25122768
   0.21717640  0.65621148  0.71767846
   0.15759019  0.69968703  0.86871983
   0.20574025  0.54684595  0.83877327
   0.62061207  0.75595705  0.60141322
   0.50552156  0.84202308  0.52374088
   0.57517964  0.72090877  0.45512743
   0.98187552  0.04983281  0.96016019
   0.07071696  0.98691658  0.08351575
   0.09204005  0.93423757  0.92388013
   0.83315621  0.50249281  0.47329226
   0.76378643  0.48940979  0.32620356
   0.81003639  0.34869036  0.40326484
   0.85488535  0.40611238  0.73534159
   0.99883676  0.47488110  0.69985807
   0.86034557  0.56091867  0.70408011
   0.08900104  0.28105980  0.55204025
   0.05208400  0.41536139  0.45995028
   0.20110257  0.39366402  0.52135106
   0.53945483  0.61616576  0.07509898
   0.58461380  0.66591138  0.23032222
   0.55975083  0.50561697  0.19024108
   0.61321823  0.47209369  0.63634497
   0.55958979  0.55964424  0.76782642
   0.52431718  0.40452983  0.76406545
   0.44991218  0.50078605  0.65638744
   0.44623385  0.58845318  0.61073232
   0.58714971  0.43770883  0.54733749
   0.48050751  0.57546788  0.83935976
   0.51158169  0.31708954  0.71402332
   0.41849853  0.29222178  0.53005150
   0.53197779  0.26357989  0.49918693
   0.44458265  0.17911857  0.48702924
   0.35182095  0.25618714  0.27776702
   0.29756554  0.27617258  0.38945711
   0.35098885  0.17227056  0.37048441
   0.48971221  0.31055674  0.26918485
   0.00100799  0.92781569  0.47775396
   0.98528504  0.88925496  0.59438174
   0.89179930  0.91307677  0.52530222
   0.93703675  0.68027943  0.55738495
   0.84776781  0.70976420  0.48530810
   0.85620296  0.77129269  0.58229503
   0.01351083  0.69970153  0.41658711
   0.26188519  0.08152141  0.83107440
   0.14548004  0.09581108  0.81714992
   0.21038944  0.13713878  0.91938211
   0.13680598  0.30969492  0.86718546
   0.07610031  0.26259089  0.77212325
   0.16697031  0.32963483  0.75262807
   0.27961665  0.30298018  0.71734789
   0.54802710  0.29593623  0.14642385
   0.64571052  0.24972873  0.11627548
   0.56278406  0.18064657  0.16172301
   0.53307387  0.25261814  0.89194241
   0.64361283  0.25245862  0.92732915
   0.56582691  0.33605624  0.96390481
   0.44966855  0.15230761  0.94131189
   0.92730976  0.87743233  0.85426713
   0.82168638  0.86697408  0.80663916
   0.90566150  0.78323417  0.79023010
   0.95878040  0.80588208  0.99211352
   0.94726182  0.69786686  0.95008152
   0.88431091  0.72703888  0.03601159
   0.73979000  0.74851504  0.99258309
   0.81161573  0.57208596  0.03808410
   0.71318897  0.53279286  0.99734211
   0.78343027  0.58701784  0.91877837
   0.74209565  0.34589396  0.98032898
   0.79737912  0.38356604  0.07606733
   0.86124415  0.32046226  0.99538717
   0.95170044  0.39989398  0.92762487
   0.77556491  0.11296948  0.80272813
   0.88295170  0.06492041  0.76465296
   0.77862034  0.04001048  0.70939838
   0.82351129  0.07687079  0.57830313
   0.92938047  0.11034978  0.61394087
   0.85108027  0.18825194  0.55018935
   0.77972920  0.28577034  0.62973236
   0.08569878  0.53290718  0.31899003
   0.96339547  0.52092954  0.31667833
   0.01627935  0.62811604  0.29701058
   0.99698832  0.62462653  0.09463358
   0.09170987  0.55536685  0.06823553
   0.10551592  0.63688579  0.15472441
   0.01578079  0.42250718  0.11015588
   0.70509903  0.02594052  0.97499323
   0.59199020  0.04760895  0.99790041
   0.63214121  0.93363810  0.97907304
   0.61760800  0.92660728  0.23110871
   0.55679510  0.90791674  0.12945613
   0.55476676  0.01379232  0.18287310
   0.73958032  0.01026041  0.22094614
   0.74545155  0.76346652  0.30542958
   0.74584130  0.87982348  0.30751736
   0.81059984  0.81697410  0.38925888
   0.99792573  0.86070480  0.26853247