unknown system                          
           1
    15.000000    0.000000    0.000000
     0.000000   15.000000    0.000000
     0.000000    0.000000   15.000000
   C    H    N    O 
  79 187  26  25
Direct configuration=    50
   0.23159239  0.00613912  0.17815491
   0.31149685  0.87222151  0.22032141
   0.36740626  0.01597272  0.27663501
   0.68915523  0.76756490  0.57763085
   0.61800880  0.64420242  0.65229440
   0.72838089  0.61736144  0.53158976
   0.33109433  0.35877545  0.74759938
   0.24080230  0.23629454  0.68667393
   0.28161627  0.24362931  0.84646642
   0.21846127  0.50532109  0.31241431
   0.26671945  0.47072775  0.15846535
   0.13502583  0.39317977  0.22414782
   0.85674407  0.68205270  0.89222080
   0.73763870  0.55861793  0.84249201
   0.70439489  0.67516418  0.94794243
   0.56327000  0.35686182  0.81939285
   0.68227324  0.25264648  0.87003544
   0.70146922  0.34404500  0.74054585
   0.91261245  0.08629838  0.52225762
   0.91905444  0.16159787  0.66576180
   0.78507122  0.07591997  0.62698871
   0.00519003  0.85206895  0.33353757
   0.86890888  0.75753462  0.29520620
   0.02031366  0.69773139  0.27467608
   0.41008551  0.30498514  0.15947306
   0.57084276  0.30516022  0.13230213
   0.50957648  0.39692643  0.25463485
   0.60546384  0.91394855  0.27103977
   0.66198599  0.00132197  0.39842509
   0.61408896  0.07672636  0.25754860
   0.46904965  0.07225436  0.78680921
   0.54468841  0.92904619  0.75810825
   0.38221269  0.93737318  0.73927627
   0.49595012  0.34536639  0.51654622
   0.45780633  0.20423167  0.45322393
   0.51486321  0.20065598  0.60288618
   0.10089626  0.25417157  0.47585695
   0.23438208  0.21944460  0.38073506
   0.23205304  0.35246495  0.47034714
   0.15024951  0.79322075  0.91795018
   0.18250596  0.71884018  0.06443247
   0.11925275  0.86979121  0.06072340
   0.79644617  0.53301338  0.18193510
   0.92073553  0.46865988  0.09050685
   0.76144806  0.45544436  0.04596937
   0.37971273  0.54501568  0.89843252
   0.43262234  0.65917623  0.01174132
   0.44335376  0.68833002  0.85282360
   0.49307437  0.97668230  0.01860492
   0.36914382  0.07732686  0.00801887
   0.35838939  0.92243839  0.94746669
   0.77013118  0.31309651  0.52463929
   0.84327930  0.27062218  0.37144618
   0.72339720  0.37341539  0.38256994
   0.93396637  0.92456783  0.70395611
   0.06247982  0.00271943  0.79211452
   0.07882166  0.87416520  0.68189231
   0.20524374  0.93260132  0.44353284
   0.33883242  0.98149539  0.52442647
   0.19149580  0.02162807  0.57716506
   0.91855994  0.23382779  0.16779493
   0.04734173  0.13981599  0.12214354
   0.92907991  0.17759811  0.01717088
   0.42336636  0.65767980  0.28851736
   0.56961767  0.62250045  0.36439557
   0.48146444  0.75344658  0.40000893
   0.11981095  0.38396118  0.94699522
   0.99760082  0.37089426  0.84676542
   0.07976117  0.51611237  0.86415734
   0.97639645  0.43338450  0.60382890
   0.97005647  0.49160413  0.44940106
   0.93695209  0.58578680  0.57894418
   0.87710888  0.88579203  0.03375099
   0.73479511  0.98258309  0.02330131
   0.83263738  0.99303080  0.15302422
   0.16464019  0.64059228  0.51899354
   0.17487977  0.63599423  0.67868793
   0.27102095  0.73637966  0.58694888
   0.29770462  0.57388213  0.59520361
   0.23874086  0.07690919  0.17698072
   0.16690328  0.98886876  0.20981883
   0.23219305  0.97965988  0.11208722
   0.25126089  0.84198832  0.24297262
   0.36368760  0.84371262  0.25892301
   0.31895325  0.84990845  0.15307215
   0.42058416  0.97164313  0.30804408
   0.72260576  0.78007825  0.51255482
   0.73388586  0.79952823  0.63339611
   0.61929199  0.80350314  0.57946688
   0.54938754  0.65493264  0.63353663
   0.62246603  0.69297670  0.70712007
   0.63205608  0.57887760  0.68065938
   0.71631675  0.54634772  0.54477907
   0.35493354  0.38554879  0.80953318
   0.28295395  0.40839840  0.72474744
   0.38266632  0.34511269  0.69801447
   0.28302161  0.23339630  0.62792600
   0.17581680  0.27423232  0.67556500
   0.22398939  0.16747935  0.70433039
   0.24231596  0.18130216  0.85780969
   0.15961566  0.51025908  0.35010255
   0.22906527  0.57657942  0.29400438
   0.27595602  0.47526533  0.34464465
   0.25023003  0.54128302  0.13170433
   0.26497307  0.42457482  0.10309181
   0.33162121  0.48149964  0.18909741
   0.12733897  0.35473985  0.16209192
   0.89307965  0.65893106  0.83020305
   0.89167687  0.66260912  0.95312697
   0.84945047  0.75852093  0.89661623
   0.66642158  0.56043947  0.83494249
   0.75754031  0.49308896  0.87631022
   0.77352352  0.55855342  0.77827807
   0.64241909  0.62943652  0.94609831
   0.52031051  0.31474195  0.86087826
   0.53664183  0.36540721  0.75077298
   0.56718902  0.42369839  0.85055338
   0.73983391  0.22394657  0.83862868
   0.63853417  0.19272873  0.87462737
   0.69722163  0.28645088  0.93519961
   0.75916375  0.29955002  0.73684280
   0.87449739  0.03699122  0.48475696
   0.97748090  0.05769295  0.54203879
   0.92877260  0.15204613  0.48542229
   0.98277803  0.12568801  0.68040148
   0.88127079  0.17245393  0.72941068
   0.92961817  0.23047926  0.63910097
   0.76192815  0.10430981  0.69280910
   0.00212959  0.85961130  0.40621961
   0.96284167  0.90724803  0.30576693
   0.07279133  0.86045149  0.31082435
   0.84547851  0.69853380  0.25298075
   0.84783559  0.82186047  0.26649742
   0.84336077  0.74309276  0.36235282
   0.98218412  0.63991103  0.24706601
   0.39075318  0.32351760  0.09026072
   0.36644039  0.33640868  0.20861535
   0.39978834  0.23052048  0.15804003
   0.57171284  0.33295655  0.06502279
   0.57008360  0.23345206  0.12241298
   0.63958632  0.32392443  0.16190992
   0.58016612  0.41629190  0.27299694
   0.55821652  0.91878632  0.21610119
   0.58969280  0.86684573  0.32158702
   0.66919788  0.89256615  0.24188460
   0.73321560  0.97442183  0.39153439
   0.62514443  0.96461731  0.45113325
   0.67690768  0.07033190  0.42833233
   0.63193497  0.13765489  0.29876468
   0.52839282  0.10434744  0.75324325
   0.48308034  0.06917505  0.85723442
   0.41326331  0.11188555  0.77276321
   0.53807532  0.86604764  0.71954869
   0.55143624  0.91326817  0.82861911
   0.60583491  0.95842745  0.73088703
   0.39326975  0.86793090  0.71764949
   0.51080501  0.35589903  0.44751521
   0.54449028  0.38454089  0.55823967
   0.43105615  0.37616403  0.52447951
   0.39381321  0.24105950  0.44344256
   0.44674483  0.13550359  0.47049672
   0.48456304  0.20969383  0.38581566
   0.53060338  0.12882999  0.59111200
   0.08136388  0.30768866  0.52572021
   0.09745033  0.18355012  0.49226803
   0.06281637  0.26599974  0.41060367
   0.27796125  0.26266019  0.34062706
   0.17919181  0.19192882  0.34273904
   0.26989078  0.16659677  0.41990762
   0.30274394  0.36297066  0.44265378
   0.21305051  0.81321676  0.88642642
   0.09733732  0.83339605  0.88809382
   0.13308398  0.72131795  0.90125845
   0.24283423  0.73691472  0.10010955
   0.19941402  0.66767194  0.01658736
   0.13680542  0.69848323  0.11499036
   0.11286372  0.85543773  0.13450744
   0.78145295  0.60300627  0.17172083
   0.84311023  0.51635359  0.23498409
   0.72770356  0.51066313  0.19494557
   0.95105110  0.45647243  0.15519212
   0.95436427  0.52779435  0.07067403
   0.94322443  0.41375170  0.04749275
   0.79453627  0.42397817  0.98860646
   0.40758359  0.53294882  0.83065973
   0.30672083  0.54989578  0.89723534
   0.40523914  0.49107260  0.94034132
   0.39971234  0.72535797  0.02775603
   0.50150487  0.67287830  0.02420022
   0.41464111  0.60592912  0.05857688
   0.47689257  0.74960986  0.87376938
   0.53685942  0.02593524  0.98399662
   0.51869789  0.91037954  0.99876905
   0.50603892  0.99410958  0.08846030
   0.37696081  0.11724563  0.95129999
   0.39795951  0.10755412  0.06454006
   0.29802268  0.07389390  0.01924431
   0.29435964  0.94406781  0.91473010
   0.71583750  0.27081259  0.54927795
   0.75099539  0.38262720  0.54161920
   0.82798311  0.30283081  0.56210966
   0.82495680  0.28680255  0.29924624
   0.82962537  0.19855042  0.37599577
   0.91165410  0.28612664  0.38818839
   0.74049136  0.37222934  0.30932433
   0.91832480  0.85534174  0.71544886
   0.92760601  0.92912020  0.62899809
   0.89351208  0.97397755  0.73997054
   0.03151308  0.99972676  0.85936262
   0.04754932  0.06585362  0.75927310
   0.13466201  0.99328486  0.80001254
   0.15138939  0.88031887  0.69339781
   0.20768714  0.85876749  0.46601972
   0.25267503  0.93417639  0.38723231
   0.14399049  0.95733815  0.42016046
   0.36186442  0.02349313  0.57872774
   0.37342786  0.99681035  0.46114235
   0.35836929  0.91082128  0.53995464
   0.21951636  0.03402120  0.64662584
   0.89915526  0.17964380  0.21553885
   0.85349685  0.26045216  0.14352051
   0.95400411  0.28838279  0.20324925
   0.09425214  0.14224128  0.06690223
   0.02658398  0.07369526  0.13933391
   0.07539617  0.16695658  0.18430746
   0.97901433  0.13798576  0.98229817
   0.45477266  0.66984865  0.22206348
   0.37025001  0.70776112  0.29893574
   0.39951373  0.58623849  0.29669890
   0.61687812  0.66656910  0.39746209
   0.59563910  0.60683480  0.29781842
   0.55177644  0.55951650  0.39271797
   0.53146904  0.77263507  0.44945514
   0.14778736  0.32733132  0.90885166
   0.08777163  0.34910165  0.00459835
   0.17326541  0.43055394  0.96743002
   0.02626791  0.32415575  0.79330308
   0.94851169  0.40911559  0.80965456
   0.96249826  0.33087034  0.89723957
   0.03556594  0.54277258  0.81043281
   0.93563344  0.45120743  0.66290570
   0.04883572  0.43078153  0.61971906
   0.95880883  0.36366831  0.57446757
   0.96484221  0.55464367  0.41065433
   0.91601033  0.44667462  0.42427664
   0.03727401  0.46964688  0.42916456
   0.92001078  0.63909906  0.53102556
   0.84628326  0.82046293  0.03148906
   0.93759205  0.87960613  0.07618762
   0.89891586  0.90411605  0.96690998
   0.68135934  0.00147094  0.06611733
   0.71084372  0.92229779  0.98590407
   0.74446444  0.04672249  0.98680256
   0.77776974  0.03877493  0.16684951
   0.26280510  0.51291229  0.59874530
   0.34348677  0.58483127  0.65449538
   0.32960931  0.58462284  0.53287825
   0.11789949  0.69554309  0.52433235
   0.13478488  0.57307654  0.51192497
   0.20520952  0.65595850  0.45955069
   0.12247630  0.68634518  0.67879635
   0.22548675  0.63051500  0.73638004
   0.15034165  0.57052679  0.67855693
   0.30982858  0.74146506  0.51978351
   0.31540833  0.74460718  0.64354858
   0.21265879  0.78575911  0.58296669
   0.30651780  0.96952274  0.22695108
   0.68102674  0.66935080  0.58507978
   0.28746057  0.27266299  0.76259376
   0.20384254  0.44962701  0.23020613
   0.76433982  0.63989296  0.89143210
   0.64697887  0.31804508  0.80673578
   0.86627595  0.11120354  0.60452612
   0.96753053  0.76762875  0.29789680
   0.49891349  0.33640869  0.18650199
   0.61530787  0.00156468  0.31139522
   0.46229841  0.98228616  0.75377852
   0.49638174  0.24681954  0.52805672
   0.19150584  0.27736259  0.44779351
   0.15079179  0.79764829  0.01513106
   0.82492440  0.48250607  0.10575961
   0.41458251  0.63538342  0.91936428
   0.40165960  0.98614294  0.99602476
   0.77972940  0.31894290  0.42872004
   0.02778909  0.93062356  0.73071317
   0.24404684  0.99012274  0.51388572
   0.96979676  0.19814019  0.09378111
   0.48723632  0.67201277  0.35942307
   0.05906152  0.43182104  0.88713983
   0.96379213  0.50788957  0.54335971
   0.81784009  0.95160706  0.07013676
   0.22847785  0.64559522  0.59552201
   0.37114378  0.09843723  0.28458165
   0.77857574  0.64649065  0.47354828
   0.31696591  0.28399474  0.90977003
   0.07744752  0.38366072  0.28449151
   0.70944104  0.74737893  0.98963173
   0.69513397  0.41286111  0.69308246
   0.74516554  0.01802660  0.58654210
   0.10223639  0.69396607  0.28063184
   0.45041909  0.42445693  0.30355631
   0.59972901  0.08070376  0.17705743
   0.30204714  0.96214966  0.75120781
   0.51830595  0.23765777  0.67789580
   0.20431080  0.40352868  0.52964344
   0.09599168  0.94190983  0.02585023
   0.68057355  0.46702629  0.05623325
   0.42213278  0.67821406  0.77402646
   0.38632641  0.84501708  0.93812840
   0.66521393  0.42057143  0.41537045
   0.05083615  0.82160192  0.62531413
   0.10916536  0.02761751  0.56467752
   0.85610802  0.20258430  0.99294511
   0.41732594  0.80604080  0.38875481
   0.14486173  0.55535330  0.90027741
   0.92809314  0.59788446  0.66229334
   0.89618227  0.97407873  0.20170386
Direct configuration=   100
   0.24095252  0.02169368  0.17594581
   0.30553912  0.88070895  0.23587316
   0.37465542  0.02699801  0.26451415
   0.68844813  0.77501516  0.57545727
   0.62842886  0.64104512  0.66127025
   0.72497055  0.61680137  0.53664998
   0.32969040  0.36580397  0.74900063
   0.24307002  0.23371234  0.69955869
   0.29059092  0.23958984  0.84997066
   0.19405812  0.51132696  0.32638778
   0.25004911  0.49625925  0.17175300
   0.12516831  0.39969654  0.22742941
   0.84352594  0.69598649  0.86442077
   0.76872510  0.56261541  0.83815517
   0.69333170  0.68413328  0.92747705
   0.56653734  0.36044598  0.82795188
   0.67907219  0.25925082  0.89047319
   0.70396609  0.33941215  0.74128861
   0.90866101  0.06361340  0.52339431
   0.90495122  0.18122583  0.64416326
   0.78327281  0.07913065  0.62736194
   0.01329280  0.85347631  0.32510843
   0.87586860  0.76588579  0.31891128
   0.02236584  0.69929141  0.27433639
   0.41144363  0.28407848  0.18010945
   0.56743393  0.30324218  0.14193904
   0.49415947  0.39844736  0.24852346
   0.61335592  0.90844226  0.26949619
   0.66191336  0.99602513  0.40563111
   0.61296565  0.06827519  0.26711905
   0.47264948  0.06729087  0.78589949
   0.54870069  0.92187025  0.75100774
   0.38092965  0.94018762  0.75243230
   0.48447158  0.34071303  0.52705459
   0.48247882  0.19188968  0.44214016
   0.49450799  0.20183107  0.60017781
   0.10526183  0.24851719  0.48472243
   0.23194689  0.21826295  0.38731994
   0.23151771  0.35397674  0.48158246
   0.15205900  0.76846731  0.91891443
   0.20333103  0.72405269  0.06756080
   0.11828054  0.85613806  0.05294089
   0.78595096  0.54351536  0.18621765
   0.90637235  0.45931891  0.10132632
   0.74982450  0.45167865  0.05688831
   0.36170221  0.55157822  0.90216203
   0.43885852  0.65244803  0.00455504
   0.43888874  0.68613282  0.84356181
   0.50139340  0.96644098  0.02029876
   0.38693318  0.08467200  0.99025350
   0.35416100  0.92995271  0.96968383
   0.77437056  0.33058911  0.51633826
   0.84101345  0.28107972  0.37389391
   0.71872282  0.39232762  0.38018942
   0.92638300  0.90847679  0.72820681
   0.06168860  0.99622672  0.77934691
   0.08046873  0.86545364  0.68013341
   0.20594907  0.93406718  0.43581534
   0.34441460  0.97846725  0.51749801
   0.20996555  0.02702503  0.57151496
   0.91263520  0.21990631  0.16426200
   0.05911516  0.14756227  0.12611449
   0.94498646  0.17180001  0.01067503
   0.41776289  0.64932794  0.28886376
   0.54983624  0.60147812  0.36950829
   0.48964755  0.74789516  0.40314965
   0.10315352  0.38800371  0.97248508
   0.99081749  0.38205383  0.84662151
   0.09255005  0.50236887  0.85372663
   0.97236182  0.42525545  0.57369849
   0.96455443  0.50786814  0.43145202
   0.94710800  0.58732043  0.57478563
   0.89405185  0.90196727  0.03943691
   0.74500243  0.96444975  0.01806917
   0.82929148  0.99831924  0.15386837
   0.16966420  0.65072404  0.51713466
   0.17630183  0.63078432  0.67835109
   0.26613106  0.74632885  0.61545935
   0.30653855  0.59365239  0.58134457
   0.25663861  0.09578539  0.17593335
   0.17652678  0.01259206  0.21079022
   0.23863936  0.99443687  0.10615927
   0.23403809  0.86149384  0.24957225
   0.35157558  0.86051214  0.29414427
   0.32481752  0.84222086  0.17275626
   0.42176158  0.98214154  0.29911701
   0.73449620  0.79705571  0.52390178
   0.70963963  0.80374542  0.63573447
   0.62426782  0.80028759  0.56411168
   0.56926868  0.68483451  0.67554916
   0.66140660  0.62673372  0.72557599
   0.60732899  0.57641643  0.63340726
   0.71213603  0.54672379  0.56399962
   0.34699239  0.39986723  0.81095478
   0.27986546  0.41014798  0.71582698
   0.39284760  0.35069148  0.71158815
   0.29308567  0.21043170  0.64981396
   0.19351366  0.27747482  0.67323720
   0.20849060  0.17500085  0.72688909
   0.26453533  0.17058049  0.84976744
   0.14085253  0.56607689  0.33384566
   0.25411120  0.55564226  0.32197934
   0.19861500  0.46845558  0.38674337
   0.23629872  0.56170948  0.14508362
   0.23865155  0.45067284  0.11454078
   0.31795270  0.48655116  0.19625716
   0.13235503  0.36641292  0.16139886
   0.85503979  0.70414605  0.79671563
   0.89602995  0.65786981  0.89966652
   0.84055499  0.75860360  0.89929299
   0.70940201  0.52406781  0.85720840
   0.82016791  0.53205630  0.87738003
   0.78163928  0.55543494  0.76555757
   0.63497771  0.64629704  0.91680589
   0.51217164  0.31087839  0.84188674
   0.54944032  0.39892572  0.77070135
   0.57606255  0.40582881  0.88509633
   0.74501748  0.22286519  0.88001636
   0.62881610  0.20766853  0.89821004
   0.67610917  0.30629115  0.94361155
   0.76926719  0.30353077  0.74492073
   0.85441130  0.04911569  0.47660365
   0.94833795  0.00294124  0.53714076
   0.95803397  0.10682909  0.49760637
   0.97266123  0.16304180  0.66594105
   0.86253513  0.20102831  0.69930693
   0.90970944  0.24123570  0.60583238
   0.75854987  0.11466784  0.68806857
   0.01590079  0.86134697  0.39848323
   0.98165052  0.91181824  0.30184864
   0.08584717  0.84902742  0.29950830
   0.85595322  0.69861270  0.31517350
   0.83623040  0.80881730  0.27180847
   0.86778645  0.78247956  0.38893518
   0.98692485  0.63554824  0.26240740
   0.39955291  0.26902226  0.11039207
   0.34959512  0.31996438  0.20435294
   0.42196801  0.21867538  0.20566274
   0.55363118  0.29708923  0.06762454
   0.59170047  0.23081475  0.16312472
   0.62298498  0.34656596  0.15200403
   0.55764025  0.43483896  0.25082816
   0.56885496  0.92438855  0.21480344
   0.59435703  0.85166126  0.31338186
   0.67895018  0.88877060  0.23795490
   0.72946506  0.97373697  0.39838571
   0.62802015  0.96214521  0.45815485
   0.66928922  0.06117589  0.42815327
   0.61859304  0.12971261  0.31257618
   0.50782589  0.10896569  0.73700853
   0.50938771  0.07554345  0.85051813
   0.40248536  0.09200716  0.79290293
   0.54198860  0.85621368  0.72039299
   0.59222541  0.91834855  0.81190218
   0.58607338  0.96059586  0.70071007
   0.38156027  0.86670729  0.73881104
   0.48995942  0.37154332  0.45921252
   0.53032266  0.37069157  0.57142801
   0.41917570  0.36325683  0.55942642
   0.41598907  0.18171253  0.41464156
   0.51924197  0.12795936  0.45418065
   0.51172673  0.23245697  0.38738295
   0.48530359  0.12766245  0.59062592
   0.08805584  0.29878796  0.53422056
   0.11341474  0.17893245  0.51350913
   0.05710004  0.24627185  0.43082134
   0.29881786  0.24466002  0.37939928
   0.19213261  0.22849977  0.32554357
   0.22710838  0.15073456  0.40849024
   0.29476355  0.36980819  0.45246314
   0.21414171  0.80158147  0.89622231
   0.09876154  0.80676958  0.88562888
   0.14624682  0.69999783  0.90065835
   0.27463846  0.74647097  0.06226136
   0.20077010  0.65590688  0.03936615
   0.18271536  0.72477646  0.14148470
   0.12501550  0.85260118  0.12402021
   0.76205362  0.60977529  0.15886974
   0.84586430  0.55516736  0.22617369
   0.72490110  0.52236065  0.22009832
   0.94236655  0.42717552  0.15925336
   0.95965155  0.51060742  0.07867837
   0.90493223  0.41475320  0.04335335
   0.77883793  0.40246073  0.00988955
   0.33760644  0.55006662  0.83318242
   0.30767210  0.56127623  0.95031897
   0.40126864  0.49023531  0.91019680
   0.46295403  0.72021788  0.00926769
   0.49640475  0.61131075  0.03568648
   0.37793537  0.64595947  0.04537248
   0.47600474  0.74762994  0.86589645
   0.56061968  0.98687698  0.98118834
   0.50588655  0.89311877  0.01882160
   0.51176037  0.99408009  0.08579347
   0.41105583  0.12474183  0.93122814
   0.41438324  0.11319375  0.05661551
   0.31151230  0.09323363  0.98572053
   0.28594774  0.95539859  0.96405722
   0.74894866  0.26087274  0.52045669
   0.72362151  0.36687271  0.55122089
   0.83761171  0.34746330  0.55595952
   0.83460910  0.29667688  0.30562673
   0.82466917  0.20961606  0.39263974
   0.91117724  0.29195834  0.39621407
   0.72729008  0.38649534  0.30631527
   0.90874770  0.83827734  0.71087991
   0.90806228  0.95290306  0.67517283
   0.89740318  0.93031514  0.79196983
   0.04603421  0.98805750  0.85234842
   0.03585069  0.06045232  0.75345694
   0.13510353  0.99229147  0.77165488
   0.15181923  0.87544241  0.69666691
   0.18667967  0.86811423  0.44851716
   0.25739019  0.93805130  0.38289763
   0.14742251  0.97919433  0.41703484
   0.36412026  0.00922217  0.58531780
   0.37164026  0.02277615  0.46554959
   0.37986703  0.91740388  0.50872417
   0.25641454  0.07640891  0.60458286
   0.88709067  0.16657364  0.20684853
   0.85589993  0.24833923  0.13288734
   0.94722679  0.27107477  0.20469768
   0.10847971  0.14660885  0.06746498
   0.05026015  0.07544641  0.14820776
   0.08004743  0.18822257  0.18238494
   0.00328917  0.14252769  0.96690613
   0.43087199  0.67213018  0.22037834
   0.35591801  0.67391543  0.31439681
   0.41709374  0.57720945  0.28250980
   0.59766851  0.62919242  0.42168617
   0.58747922  0.58665702  0.30854625
   0.50758242  0.54363234  0.39232060
   0.54695069  0.75237078  0.45096410
   0.17153243  0.36546467  0.97282878
   0.06453361  0.32860084  0.98852574
   0.09056121  0.43941280  0.02393257
   0.00152121  0.31513019  0.82663143
   0.97697610  0.41880273  0.78275527
   0.93123848  0.37619436  0.88920208
   0.04684358  0.51313340  0.79946337
   0.90600355  0.41078261  0.60299760
   0.02770860  0.41825914  0.61955543
   0.97698038  0.38218897  0.51590287
   0.97094233  0.57851303  0.40754202
   0.90097451  0.48402642  0.40612654
   0.02306902  0.47380070  0.40640726
   0.94701361  0.64569791  0.52786996
   0.87435889  0.83046204  0.03169847
   0.95167645  0.90085740  0.08598211
   0.91775782  0.92554531  0.97255481
   0.69990347  0.02430776  0.03674617
   0.71011372  0.90187132  0.02793670
   0.75805470  0.97250921  0.94409575
   0.77025787  0.04221288  0.16989906
   0.27934374  0.52368599  0.57617140
   0.35012272  0.60071211  0.63905637
   0.34396170  0.61577698  0.51859161
   0.10877904  0.69211569  0.52854315
   0.15527741  0.58188884  0.50501328
   0.20522944  0.67131373  0.45550246
   0.13297307  0.68706343  0.68192354
   0.22307163  0.62645672  0.73652846
   0.14159776  0.56395575  0.67356217
   0.30532672  0.76135677  0.56165650
   0.30559753  0.74126456  0.67728055
   0.20864998  0.79161757  0.61266540
   0.31037849  0.97987672  0.22263010
   0.68532301  0.67739759  0.58943767
   0.28912388  0.27821974  0.76962904
   0.18963376  0.46409998  0.24306650
   0.75835904  0.65110642  0.87040609
   0.65210983  0.31493566  0.81128241
   0.86419374  0.10512678  0.60136674
   0.97154478  0.76960625  0.30147127
   0.49028483  0.33243562  0.18819902
   0.62204285  0.99144451  0.31577928
   0.46610298  0.97300951  0.76188188
   0.48784049  0.24439134  0.52187992
   0.19190730  0.27866469  0.45180046
   0.14199809  0.77712014  0.01456296
   0.81323086  0.48522692  0.11487921
   0.42012050  0.62878989  0.90977150
   0.41337463  0.99373319  0.98820260
   0.78169893  0.34405664  0.42223264
   0.02601852  0.91335078  0.73180991
   0.25234746  0.97231835  0.51389720
   0.97351037  0.18185268  0.09431184
   0.48901506  0.67473325  0.34887937
   0.07174084  0.42243032  0.88568589
   0.96666876  0.50947436  0.52977389
   0.82477178  0.95652251  0.07409581
   0.23056098  0.65474005  0.59648123
   0.37441155  0.10885654  0.26935342
   0.76747170  0.63318143  0.46666580
   0.31869727  0.26828448  0.92076775
   0.07034898  0.37403740  0.28195506
   0.70206503  0.74392768  0.98515058
   0.67786182  0.39140801  0.68279857
   0.73684017  0.02164899  0.58744293
   0.10596044  0.70373357  0.26746766
   0.43191037  0.43210215  0.29284896
   0.59278287  0.07462158  0.18506949
   0.31080170  0.98388240  0.75574355
   0.50794902  0.24360717  0.66868354
   0.19273657  0.40694878  0.53209126
   0.09404929  0.92372065  0.01250736
   0.66898254  0.47264350  0.05798143
   0.42759154  0.66841413  0.76346310
   0.36706876  0.85022618  0.95690439
   0.65456909  0.42976754  0.41614439
   0.06594329  0.80585130  0.62258422
   0.13085854  0.03686957  0.57932349
   0.86784753  0.19118224  0.98134609
   0.44043745  0.81387158  0.39832569
   0.14969435  0.55277694  0.88152048
   0.93361444  0.59246853  0.65557080
   0.89529068  0.99466365  0.20622495
Direct configuration=   150
   0.23930393  0.02778530  0.17625089
   0.31244032  0.88510313  0.21807465
   0.37745234  0.02644099  0.26764909
   0.69995722  0.76801402  0.57692746
   0.63173221  0.64852090  0.66854463
   0.71791939  0.61317376  0.53127216
   0.32301122  0.36154646  0.76401216
   0.25063966  0.23223366  0.69839161
   0.28647276  0.23849765  0.85886077
   0.16921834  0.52032492  0.33461754
   0.23340752  0.50621360  0.17984224
   0.12308582  0.40559134  0.23043139
   0.83322003  0.72127166  0.84096908
   0.77844364  0.56237055  0.82756448
   0.70889916  0.66995420  0.92845667
   0.55966357  0.37121284  0.84347493
   0.68442431  0.26109266  0.89457412
   0.69447535  0.33175449  0.75442427
   0.89723393  0.04854462  0.52747203
   0.91106449  0.17967311  0.62647642
   0.77232657  0.08648536  0.62070137
   0.02069682  0.86400414  0.32263525
   0.88679844  0.76554490  0.33599234
   0.02568945  0.71124101  0.27713075
   0.40349384  0.27550061  0.18037857
   0.56641258  0.30131490  0.15325783
   0.47897946  0.41014266  0.23893881
   0.62948934  0.90114859  0.26617823
   0.65965000  0.98132082  0.40957636
   0.61232111  0.06404255  0.27165862
   0.49603937  0.06318113  0.78251725
   0.54189443  0.90601898  0.74452166
   0.38421320  0.94415487  0.75867980
   0.46793744  0.34032723  0.51242728
   0.51210100  0.20352807  0.43485652
   0.49668461  0.20147786  0.59289702
   0.10823079  0.23699256  0.49362035
   0.23167495  0.22854390  0.38361497
   0.22437967  0.34939889  0.48713030
   0.15175201  0.75510623  0.91469827
   0.20655098  0.70691339  0.06167019
   0.12477072  0.84936830  0.04106773
   0.77874785  0.56053900  0.18043311
   0.89160356  0.45455360  0.11913041
   0.73681332  0.45324501  0.06416882
   0.35750168  0.55641906  0.89837732
   0.46299572  0.64466608  0.99347097
   0.44627418  0.67327756  0.83677076
   0.50549736  0.95534086  0.00998879
   0.40725692  0.09120992  0.00488677
   0.34772550  0.93948809  0.97480859
   0.75159309  0.32764898  0.50728520
   0.83977222  0.30197101  0.37023320
   0.70829816  0.40452088  0.36900441
   0.93526355  0.87700291  0.74310601
   0.06092078  0.98571966  0.79021547
   0.07885829  0.86429192  0.67699341
   0.20622148  0.94196321  0.44917055
   0.35334922  0.96629476  0.50108951
   0.22810201  0.03249463  0.58033464
   0.91310853  0.20592973  0.15826327
   0.06422417  0.15220757  0.12429240
   0.95524439  0.16386941  0.00334519
   0.41321440  0.66933632  0.29394657
   0.53965453  0.58365879  0.36545115
   0.50109289  0.73854978  0.40670499
   0.09045253  0.40375250  0.97424888
   0.98577632  0.37211590  0.84698106
   0.09912879  0.48948008  0.84074283
   0.98272701  0.43313082  0.55789357
   0.95457993  0.53359911  0.42297426
   0.94654480  0.59316133  0.57415374
   0.90463438  0.91051581  0.05440912
   0.75008871  0.95385393  0.01859977
   0.82661436  0.00909808  0.15219633
   0.18245548  0.67105590  0.51712215
   0.18748285  0.61371119  0.66995261
   0.27161869  0.75122184  0.62486812
   0.32107930  0.60331007  0.57900939
   0.25829385  0.09810200  0.17855571
   0.17784885  0.02159956  0.21443060
   0.23325442  0.00517371  0.10803949
   0.25127391  0.85582278  0.24590055
   0.36889001  0.86160977  0.25282565
   0.31793458  0.86898308  0.14792630
   0.42822799  0.97822528  0.29141649
   0.74694671  0.77169272  0.51950812
   0.73251282  0.80157942  0.63619933
   0.63820180  0.80805556  0.55433431
   0.56148011  0.66678439  0.66142397
   0.66714689  0.68492067  0.72085121
   0.63638602  0.57629593  0.68117748
   0.69991928  0.54603480  0.55153651
   0.34698094  0.38752547  0.82865322
   0.27248788  0.40655237  0.73882700
   0.38078633  0.35729833  0.72113824
   0.31057706  0.21845340  0.65911361
   0.20582032  0.27734757  0.65947660
   0.21526546  0.17059151  0.71812799
   0.24985027  0.17468052  0.87472492
   0.18952195  0.58864194  0.33191191
   0.20087571  0.48898149  0.39157012
   0.09838788  0.52534616  0.34825571
   0.23126479  0.57784378  0.18295176
   0.21764634  0.49401583  0.10784939
   0.30078476  0.47517127  0.19336587
   0.12980141  0.38011146  0.16019826
   0.84168145  0.72005412  0.76183037
   0.89681583  0.71512935  0.87815790
   0.80269929  0.78549510  0.85929322
   0.71339918  0.52386470  0.82788546
   0.82854347  0.51463981  0.85794193
   0.79499777  0.57393347  0.75793358
   0.67575746  0.60339944  0.94902597
   0.51050565  0.32709414  0.81286171
   0.55270811  0.43566869  0.80802297
   0.54565184  0.38414745  0.91516484
   0.75411941  0.25246936  0.87738730
   0.64693777  0.19870480  0.88245533
   0.67804376  0.28185419  0.96666281
   0.75487340  0.28502052  0.75628758
   0.85135053  0.03477788  0.47034251
   0.91856723  0.98493158  0.55736552
   0.96235968  0.07655892  0.50621972
   0.97734625  0.15602559  0.64717033
   0.87401522  0.22023607  0.67623965
   0.92218439  0.22996256  0.56993795
   0.74848175  0.14064774  0.66455683
   0.01547352  0.88815522  0.39247138
   0.98371714  0.91700386  0.28104908
   0.08979314  0.86108855  0.30494664
   0.87218007  0.69261278  0.33199833
   0.84684550  0.80276098  0.28830566
   0.87280062  0.79404122  0.40522781
   0.97690394  0.65644325  0.26369928
   0.36837134  0.28988115  0.11437050
   0.35345127  0.28704817  0.23164155
   0.42792349  0.20784676  0.18358882
   0.55169253  0.29502909  0.08304496
   0.58283131  0.23793068  0.17747575
   0.62293667  0.34178875  0.16853518
   0.53880879  0.45081238  0.24749267
   0.59437647  0.91173148  0.20220708
   0.58982021  0.85677722  0.31130057
   0.69409229  0.86921939  0.25867414
   0.72135942  0.94060940  0.42998791
   0.59684625  0.94872537  0.44257937