unknown system                          
           1
    15.000000    0.000000    0.000000
     0.000000   15.000000    0.000000
     0.000000    0.000000   15.000000
   C    H    Li   N    O 
  78 182   1  26  26
Direct configuration=    50
   0.39023908  0.52489296  0.27000583
   0.23502565  0.51829516  0.21473925
   0.30555494  0.66106464  0.26742494
   0.66683826  0.68201558  0.70951543
   0.55817193  0.56323483  0.70115414
   0.64960842  0.60143640  0.57056225
   0.52542222  0.07015407  0.70861988
   0.45738184  0.10453724  0.55877141
   0.58099654  0.18068025  0.61456318
   0.05059562  0.39056100  0.15113345
   0.92100655  0.47570082  0.11393479
   0.94871270  0.33096695  0.04009025
   0.46681637  0.93169783  0.92713883
   0.50049503  0.77315774  0.90737870
   0.36525788  0.83407729  0.83840524
   0.65403925  0.10634410  0.97607837
   0.67897468  0.21643559  0.09896559
   0.79478541  0.18805864  0.98985954
   0.17230447  0.12528568  0.94900580
   0.28434526  0.14490397  0.82407956
   0.12310233  0.17208698  0.80489357
   0.70115642  0.69278343  0.93279440
   0.85194004  0.66187341  0.99688748
   0.77948650  0.55358257  0.90585779
   0.47425149  0.91245988  0.24049371
   0.57991793  0.04179451  0.29477662
   0.62682794  0.93714142  0.18401801
   0.72893593  0.62402325  0.21521250
   0.57440059  0.63826318  0.14917359
   0.65685645  0.50278613  0.13488532
   0.45975338  0.81685613  0.60483135
   0.49847498  0.76749314  0.45422190
   0.40969954  0.67095677  0.56592934
   0.77825226  0.06082667  0.70406835
   0.75111888  0.04170967  0.53647508
   0.71793230  0.92083136  0.64514895
   0.17504857  0.11195769  0.57538705
   0.02554950  0.16448204  0.57117673
   0.14251900  0.27447225  0.58498330
   0.16395191  0.51806168  0.77734749
   0.24123551  0.57187138  0.92281558
   0.20873127  0.41068483  0.89531036
   0.96417201  0.12335491  0.23040922
   0.08680148  0.17715765  0.33258696
   0.92310153  0.18616006  0.37570948
   0.58364154  0.36664459  0.91982772
   0.48372918  0.32317589  0.79424066
   0.43947683  0.42916986  0.91032363
   0.19602046  0.85950822  0.05035783
   0.07335279  0.75514340  0.09724615
   0.16118708  0.84515853  0.21028039
   0.94731103  0.91832256  0.36932917
   0.81459912  0.83328033  0.34087042
   0.86505060  0.85223561  0.49273642
   0.93751571  0.80517011  0.76595548
   0.02904287  0.94136536  0.74584421
   0.08465204  0.81896535  0.84055626
   0.06239179  0.66893818  0.60440615
   0.19944034  0.76665874  0.61162814
   0.16125745  0.68196836  0.47954468
   0.96352816  0.99025630  0.99226974
   0.81495137  0.92566230  0.96856632
   0.89541405  0.89406052  0.10930926
   0.56516223  0.31299191  0.28151711
   0.68227318  0.26653432  0.38721310
   0.56915831  0.38101214  0.42862136
   0.89702200  0.36969024  0.63553047
   0.74749211  0.42500070  0.65223619
   0.81478841  0.32983496  0.76751668
   0.82737973  0.52008145  0.44382935
   0.93737735  0.59303260  0.34566126
   0.96497779  0.44141013  0.39830773
   0.20623433  0.44399639  0.45519884
   0.34223752  0.45012481  0.55298021
   0.33357151  0.33779269  0.43213235
   0.39674185  0.29323978  0.08161664
   0.26902836  0.23257515  0.17087027
   0.39857337  0.14125937  0.15078351
   0.44743631  0.56531798  0.25080802
   0.39116850  0.46027435  0.24225975
   0.39353729  0.51415467  0.34760584
   0.23285977  0.51025907  0.14141152
   0.17043071  0.54398710  0.24116052
   0.25046430  0.45133391  0.24625582
   0.23527287  0.69061197  0.25210156
   0.65259861  0.67442235  0.78245416
   0.64826543  0.74987195  0.69748947
   0.74069553  0.66639355  0.70525346
   0.58344656  0.54394010  0.76782883
   0.56025384  0.49949813  0.66425947
   0.48602918  0.57689601  0.70023065
   0.62046813  0.54546332  0.53279739
   0.59500572  0.05166738  0.73005549
   0.48678741  0.00563188  0.70463279
   0.49473789  0.11612358  0.75966068
   0.38886734  0.11663817  0.58297376
   0.46633552  0.03831784  0.52905310
   0.46923655  0.15456113  0.50607886
   0.57547782  0.20973189  0.54786938
   0.09512650  0.44074628  0.12587946
   0.08155749  0.32252303  0.14431143
   0.03823517  0.39460535  0.22521870
   0.84902060  0.46800773  0.09551825
   0.95348249  0.52919604  0.07302292
   0.91982347  0.48609140  0.18614584
   0.89254899  0.35821312  0.99858432
   0.52644912  0.95825849  0.89126806
   0.47613648  0.92753147  0.99987944
   0.41419957  0.98071180  0.91212420
   0.52653174  0.78611920  0.97118865
   0.55270943  0.77250579  0.85137472
   0.46236274  0.71073421  0.91233205
   0.36163766  0.76118570  0.81573167
   0.68545471  0.08685797  0.91259820
   0.58944062  0.13532305  0.96143749
   0.64122271  0.05030493  0.01994486
   0.70269690  0.19037073  0.16407771
   0.60486774  0.21271623  0.09501131
   0.68756433  0.28909133  0.10383660
   0.82485229  0.24517781  0.02176966
   0.22337108  0.15408120  0.99170540
   0.17042049  0.05148540  0.95212742
   0.10388582  0.15525988  0.95959172
   0.31897577  0.09286867  0.85650030
   0.31283526  0.21276374  0.82803348
   0.28498636  0.12439575  0.75348602
   0.14526901  0.18817227  0.73803053
   0.70833898  0.74431200  0.98460717
   0.64063033  0.65764268  0.94342118
   0.71250557  0.72314912  0.86697824
   0.87190379  0.72721720  0.96665411
   0.90771736  0.61767885  0.98921754
   0.83910955  0.67097539  0.06850871
   0.84350785  0.51616282  0.92203329
   0.42784479  0.93066807  0.29367860
   0.48837386  0.83939351  0.24573918
   0.44576768  0.92647394  0.17525413
   0.54697431  0.10299191  0.27112303
   0.65173781  0.05238961  0.28770635
   0.55793011  0.02660898  0.36521270
   0.67725965  0.99014054  0.18376555
   0.71206016  0.63870081  0.28374642
   0.74288386  0.69043612  0.18541500
   0.78899754  0.57784627  0.21276101
   0.53724189  0.64640795  0.21345973
   0.53337623  0.59481165  0.10492417
   0.58490296  0.70284753  0.11705776
   0.59861898  0.48492004  0.08783213
   0.43125587  0.88111663  0.58180211
   0.53087121  0.82602255  0.62775316
   0.42517005  0.79359160  0.66273417
   0.56448183  0.79307111  0.46969689
   0.46024883  0.82030083  0.41790389
   0.50502779  0.70390063  0.41052943
   0.40187731  0.61922958  0.51376064
   0.75674065  0.12843843  0.69106424
   0.85316311  0.05772748  0.70528735
   0.74995631  0.03448874  0.76599141
   0.82364871  0.04785028  0.52590340
   0.71830645  0.10868432  0.53183836
   0.71944891  0.99497563  0.49087655
   0.69075499  0.88876850  0.58398360
   0.24309653  0.12562851  0.59177770
   0.17771762  0.08156632  0.50806960
   0.15324161  0.05767956  0.62090010
   0.01347722  0.12601922  0.51222424
   0.98673727  0.22877555  0.56808489
   0.99902602  0.12829061  0.63017763
   0.08754478  0.32096108  0.57004879
   0.16558259  0.44844280  0.74423634
   0.20726757  0.56470905  0.73841970
   0.09352483  0.53938339  0.77778750
   0.27210670  0.53709102  0.97931886
   0.18859715  0.62285180  0.94494010
   0.29777455  0.59671605  0.87985307
   0.24823134  0.41008144  0.95945042
   0.01533986  0.12966047  0.18029246
   0.90590137  0.16263984  0.21337364
   0.94554457  0.05329121  0.22751835
   0.12235311  0.11427393  0.32963584
   0.10037910  0.20256535  0.40016121
   0.11288285  0.22667382  0.28461963
   0.94631369  0.22075199  0.43664244
   0.57457684  0.38942378  0.99259148
   0.63387004  0.40149267  0.88004259
   0.61180546  0.29596778  0.91972119
   0.46146218  0.25247078  0.80038040
   0.54322990  0.31726515  0.75466905
   0.43407561  0.35930038  0.75541332
   0.37949310  0.44079957  0.86709719
   0.26735829  0.86549454  0.05923938
   0.17747916  0.93163862  0.04470999
   0.19157625  0.81673159  0.99226821
   0.03235584  0.74125373  0.15985538
   0.10640225  0.69312361  0.07512209
   0.02893753  0.77981261  0.04479810
   0.13305933  0.79961271  0.25991481
   0.00151047  0.88506171  0.33246692
   0.98228037  0.95000913  0.42205631
   0.91833688  0.96816084  0.32432807
   0.78222622  0.76893822  0.35352625
   0.85037462  0.82684445  0.27817357
   0.75823245  0.88107703  0.33694646
   0.80311039  0.81398245  0.50582110
   0.93578569  0.74287593  0.80569259
   0.93159522  0.79022027  0.69458879
   0.87693474  0.84540976  0.78060027
   0.05013637  0.92400278  0.67743945
   0.08133099  0.98087257  0.78530628
   0.96970995  0.98265442  0.74879169
   0.14466127  0.86026777  0.84097628
   0.02656845  0.62979796  0.55410921
   0.02332217  0.73085999  0.62217742
   0.08156366  0.63122942  0.66760286
   0.16319197  0.83101390  0.61435977
   0.26022871  0.77132642  0.56755281
   0.22167809  0.74745369  0.68069833
   0.22487688  0.70955571  0.45494976
   0.97291119  0.96787341  0.92570201
   0.02480281  0.98065291  0.03231984
   0.93706741  0.05879666  0.00660935
   0.83940000  0.91800432  0.89946610
   0.77600269  0.98530970  0.96852218
   0.77229321  0.86718940  0.98655679
   0.83387720  0.85296707  0.12223582
   0.53384624  0.24554017  0.27445944
   0.62193904  0.31182005  0.23432112
   0.51672637  0.36371827  0.27119454
   0.71625834  0.25459636  0.32585277
   0.66017345  0.19922613  0.41844992
   0.73382235  0.29989863  0.42859189
   0.61069595  0.38642639  0.48990842
   0.92986071  0.43420837  0.63723565
   0.87552075  0.35923683  0.56812846
   0.94387443  0.31961881  0.66473781
   0.74063243  0.39973539  0.58274852
   0.75883967  0.49728861  0.65841856
   0.68676165  0.41211600  0.69212457
   0.74523668  0.32649357  0.79783440
   0.76353867  0.50103961  0.40984303
   0.81994127  0.59007769  0.46079789
   0.83427342  0.48135054  0.50586421
   0.89784392  0.60021160  0.28446957
   0.01152058  0.59116257  0.32371552
   0.93412038  0.64906901  0.39573841
   0.03067032  0.45044146  0.36239001
   0.17928583  0.46398512  0.52134083
   0.16318432  0.38939350  0.43149970
   0.21243753  0.50321696  0.41022878
   0.35275615  0.52005470  0.54505680
   0.41075495  0.42619917  0.56749857
   0.29929813  0.42531207  0.60920163
   0.40354030  0.31958943  0.45234848
   0.43574084  0.26170743  0.02854654
   0.43509901  0.34226679  0.11834301
   0.33948521  0.33436524  0.04673076
   0.26310161  0.27385698  0.23123907
   0.25034257  0.16614928  0.18905809
   0.22111273  0.25396867  0.11378680
   0.34176050  0.09219311  0.16803534
   0.93522322  0.21197113  0.88689500
   0.30975653  0.57443480  0.24397388
   0.61664638  0.62080721  0.65188192
   0.51961810  0.11614535  0.62563074
   0.96813648  0.39186833  0.10483311
   0.43733380  0.84773124  0.89318310
   0.71473030  0.17083551  0.02181163
   0.19336630  0.14713839  0.85549297
   0.77662171  0.63355906  0.94460393
   0.55768352  0.96255625  0.23712678
   0.65617081  0.58515261  0.16249737
   0.45373229  0.74626146  0.53783315
   0.73751764  0.00991543  0.62936682
   0.11699112  0.18800472  0.57877333
   0.19619000  0.49988739  0.86830692
   0.99016659  0.16026999  0.32010071
   0.49998441  0.37216659  0.87672405
   0.14955805  0.81102028  0.12441501
   0.88077755  0.86172496  0.40636546
   0.01287899  0.85821513  0.79638887
   0.14716733  0.69992854  0.56470760
   0.89786888  0.92672001  0.02561358
   0.60430559  0.32306191  0.37203430
   0.81951204  0.37201128  0.68880511
   0.90603767  0.51005579  0.38943042
   0.30079343  0.40911902  0.47245426
   0.35887727  0.22037877  0.13723083
   0.36706832  0.70115265  0.30557224
   0.70877445  0.64536279  0.53261771
   0.63376710  0.20736102  0.67360630
   0.97826527  0.25624968  0.02656264
   0.30446329  0.88834624  0.82161137
   0.82554818  0.14934138  0.92426348
   0.04444397  0.18248474  0.82475542
   0.72090069  0.52025710  0.85694491
   0.63002461  0.86670969  0.13996233
   0.71188126  0.44769384  0.16244473
   0.37691545  0.66289728  0.64267538
   0.72209979  0.88779643  0.72189015
   0.21644827  0.30341059  0.60994490
   0.18472532  0.34513453  0.85248666
   0.84368025  0.17304023  0.35684983
   0.45058400  0.47087048  0.98091009
   0.20187337  0.91446861  0.22979616
   0.91274248  0.87472363  0.55791680
   0.08474335  0.74464880  0.87680267
   0.11282727  0.63605301  0.42954418
   0.95524588  0.89602671  0.16456169
   0.49934992  0.42262339  0.41630266
   0.88089248  0.30014687  0.80992523
   0.94942907  0.36966113  0.43869969
   0.29613836  0.29655818  0.37099775
   0.47431789  0.11857808  0.12601893
Direct configuration=   100
   0.40173859  0.52295233  0.28529128
   0.23787976  0.51239698  0.23830629
   0.30268451  0.65168162  0.27212800
   0.66957364  0.68943675  0.70358122
   0.55256009  0.56553489  0.70151936
   0.64568075  0.60402317  0.57255816
   0.51274492  0.05605871  0.69942567
   0.45863095  0.08778755  0.55279970
   0.57099035  0.18993574  0.61730165
   0.05791738  0.37793488  0.14328886
   0.93079008  0.48054509  0.12616020
   0.94373524  0.33995122  0.04451023
   0.47132406  0.93166932  0.92127744
   0.49456819  0.76640380  0.90603943
   0.36582404  0.84435217  0.83647208
   0.64484264  0.10573663  0.95893727
   0.67012069  0.21075020  0.09078266
   0.78916977  0.17836151  0.99175138
   0.17092713  0.13580506  0.95697528
   0.28032170  0.14114142  0.83226487
   0.12501208  0.16950142  0.80666436
   0.73211679  0.68959703  0.93596970
   0.87731774  0.65939393  0.99505414
   0.79965977  0.54258134  0.90378181
   0.47089628  0.92218058  0.22758826
   0.56773844  0.02404929  0.31729716
   0.62631002  0.92661072  0.19030530
   0.71811448  0.60578027  0.21202334
   0.57204816  0.63205382  0.14829379
   0.63622452  0.48090776  0.14772624
   0.46095287  0.82510176  0.60522099
   0.48729131  0.76363496  0.44887180
   0.41107104  0.67474895  0.55618956
   0.80348737  0.06940634  0.68849617
   0.75559965  0.05188690  0.53130301
   0.70985626  0.93777077  0.64252225
   0.17924283  0.11140630  0.57217590
   0.01398179  0.14371172  0.57706369
   0.12744731  0.25791609  0.60292822
   0.17367562  0.52511602  0.78626308
   0.25648228  0.57926205  0.92623080
   0.20954829  0.41619852  0.90793744
   0.98056997  0.12163278  0.22605333
   0.08301658  0.17934395  0.34900528
   0.92152288  0.18561551  0.36199707
   0.57748247  0.35620723  0.92309103
   0.48318114  0.33766007  0.78465501
   0.42988328  0.43337314  0.90295069
   0.19583436  0.85152482  0.04926845
   0.09193213  0.72756775  0.10569855
   0.15737840  0.84031816  0.20375879
   0.94665401  0.93659105  0.39005337
   0.82243965  0.82888254  0.33995109
   0.87063554  0.84308747  0.49779695
   0.93589402  0.81759369  0.76582641
   0.04875363  0.94121848  0.73597256
   0.07816801  0.81453861  0.83702967
   0.05323036  0.67417249  0.60238815
   0.17611869  0.78749909  0.61259926
   0.16462797  0.69688513  0.47793810
   0.95071833  0.99779176  0.01394436
   0.80628733  0.90962833  0.98009564
   0.89253857  0.89359075  0.11585645
   0.55801951  0.31502904  0.29454505
   0.69524708  0.29394541  0.38918654
   0.58557721  0.39896351  0.43175978
   0.89273195  0.36732155  0.63415831
   0.72903884  0.38988323  0.66305078
   0.82533339  0.33197299  0.77751553
   0.82040105  0.50913645  0.41829207
   0.93158429  0.59927687  0.32994174
   0.97393580  0.45880889  0.40452554
   0.22442214  0.45293487  0.44385420
   0.35469782  0.44466769  0.54003639
   0.32103717  0.32480985  0.43914564
   0.39678589  0.27949864  0.07140043
   0.28898007  0.26010293  0.18386124
   0.39115017  0.14007803  0.14342280
   0.44826030  0.57796361  0.29596677
   0.42177631  0.47357896  0.22902991
   0.40279767  0.48931351  0.34564200
   0.22885595  0.51828797  0.16398816
   0.18062349  0.54930557  0.26137845
   0.23380490  0.44170121  0.25209976
   0.23707131  0.66932934  0.25236121
   0.67628516  0.66939758  0.77410545
   0.62029309  0.74670028  0.70113519
   0.73520502  0.69606537  0.68194606
   0.57690638  0.51718099  0.74760441
   0.50376157  0.52960183  0.66033820
   0.52136899  0.62234021  0.73887339
   0.60218094  0.55512724  0.53833128
   0.56643576  0.06114133  0.74482776
   0.52185337  0.98940183  0.67213299
   0.44810959  0.06300573  0.73449671
   0.39131417  0.08047660  0.58008633
   0.47970958  0.02083275  0.52995534
   0.45418909  0.13777964  0.49794087
   0.56082656  0.22466633  0.55198506
   0.11847113  0.40827244  0.10919679
   0.06273498  0.30632856  0.14232852
   0.06475011  0.40240102  0.21224276
   0.88590377  0.49589139  0.07015196
   0.98091940  0.53165593  0.13499276
   0.88189324  0.47429385  0.18098792
   0.87493378  0.35329843  0.02232553
   0.54252919  0.94646742  0.91023750
   0.45994399  0.92414810  0.99190214
   0.42813788  0.98654617  0.89602183
   0.56919790  0.78395788  0.90253018
   0.47113511  0.71499586  0.86360637
   0.48030599  0.75203678  0.97757395
   0.34843687  0.77724966  0.81050676
   0.65282619  0.10891678  0.88552483
   0.57375393  0.12992064  0.97025861
   0.64596347  0.03699390  0.98483573
   0.71047363  0.18202023  0.14572745
   0.60081905  0.19852154  0.10747928
   0.68937298  0.28275658  0.08986657
   0.82273737  0.21131498  0.04991557
   0.20843791  0.19438870  0.98455656
   0.19008452  0.07240981  0.98818196
   0.10033446  0.14771610  0.96682462
   0.30844932  0.07026886  0.84262830
   0.31664007  0.19512299  0.86572958
   0.28394324  0.15987754  0.76083868
   0.15252591  0.18219858  0.73842504
   0.71362885  0.71130950  0.00218499
   0.67401131  0.65531480  0.89801102
   0.75924050  0.74437039  0.89622842
   0.91219595  0.71758395  0.96877346
   0.92434038  0.60713036  0.00670568
   0.85005010  0.67489445  0.06339887
   0.86095971  0.50119127  0.91879075
   0.42606909  0.96608153  0.26660749
   0.46612850  0.85656864  0.25608724
   0.45497338  0.92803176  0.15408804
   0.51891690  0.07474542  0.29771288
   0.63357229  0.05702752  0.31828241
   0.55357651  0.98993408  0.37909165
   0.69352496  0.95573669  0.20862812
   0.72146127  0.57973859  0.28269579
   0.71506610  0.67593718  0.21016782
   0.77400006  0.57958361  0.17448550
   0.54610207  0.65796510  0.21170600
   0.51978652  0.60532117  0.10785349
   0.60432687  0.68613079  0.11096771
   0.57249169  0.45988872  0.12423468
   0.44578658  0.88752210  0.56883900
   0.52554943  0.83079869  0.63684642
   0.41285268  0.81631358  0.66003144
   0.56246081  0.77084414  0.44389095
   0.44907668  0.81726849  0.41961510
   0.46982748  0.70670268  0.41097894
   0.42258870  0.63105886  0.49720891
   0.78101152  0.14270711  0.68431709
   0.87395432  0.06414620  0.66832553
   0.79103698  0.04156624  0.75378949
   0.82511936  0.05135996  0.50699113
   0.73461331  0.12291717  0.53312447
   0.71138722  0.00967641  0.49168896
   0.68406635  0.90962724  0.57733673
   0.24038610  0.13994759  0.54102203
   0.15869142  0.05204334  0.53541826
   0.20306019  0.09175976  0.63926583
   0.01085713  0.08801012  0.52490183
   0.96809409  0.19622322  0.56788231
   0.99667784  0.11036981  0.63977677
   0.06898348  0.30310896  0.60863799
   0.13889509  0.46943467  0.75868758
   0.22408162  0.54803681  0.73817250
   0.12918713  0.58406255  0.79457207
   0.27628461  0.55592913  0.99316357
   0.20562361  0.62768342  0.93093937
   0.31284627  0.60320650  0.88949852
   0.22496486  0.41622964  0.97839069
   0.00618605  0.16873017  0.17429042
   0.91207877  0.09566671  0.21174424
   0.02479595  0.06193427  0.21849805
   0.12956669  0.12436607  0.36546611
   0.07534700  0.22348959  0.40663306
   0.11950736  0.21951491  0.29661975
   0.94640633  0.22845601  0.41590560
   0.56694956  0.32746392  0.98823579
   0.61461166  0.41860667  0.92391386
   0.61308432  0.30881002  0.88336643
   0.48625131  0.26466119  0.78361358
   0.54523716  0.35779090  0.74412155
   0.42266192  0.35784311  0.74548247
   0.36948906  0.43589201  0.85861715
   0.27074778  0.86160352  0.06376753
   0.17043212  0.91878788  0.03871505
   0.19827949  0.81018616  0.99192095
   0.09353367  0.68887149  0.16616312
   0.11436591  0.69057433  0.04607903
   0.02188266  0.74863022  0.09376937
   0.10619316  0.81373679  0.25082328
   0.00439893  0.90639100  0.35519341
   0.97429505  0.96521312  0.45358412
   0.92119650  0.99127993  0.34901136
   0.76848351  0.79428478  0.37441808
   0.85891937  0.77930695  0.29850370
   0.79177634  0.88126425  0.29789450
   0.82797729  0.78388477  0.50416206
   0.93749956  0.74455023  0.77427742
   0.91084449  0.83282528  0.69814349
   0.88625776  0.84404252  0.81413236
   0.12223609  0.94290482  0.72619888
   0.01759818  0.99328676  0.77517869
   0.01471979  0.94374561  0.67011121
   0.14163391  0.85109592  0.84967406
   0.05466876  0.60231150  0.58341707
   0.99656925  0.70420170  0.56959139
   0.06049496  0.68554420  0.67071780
   0.12143348  0.83665694  0.61771814
   0.23337818  0.81122913  0.57884106
   0.19476929  0.76623528  0.67863616
   0.22755530  0.73093420  0.45795340
   0.98900791  0.97447335  0.95369637
   0.99454107  0.99676413  0.07246034
   0.91951887  0.06387643  0.00649765
   0.79989398  0.83782800  0.96970998
   0.80874930  0.94648246  0.91564108
   0.74028543  0.93083787  0.00722016
   0.84115413  0.84155389  0.12946935
   0.52711087  0.24965714  0.30677282
   0.59764780  0.31275725  0.23430872
   0.50214742  0.36394580  0.29301992
   0.76211016  0.32711856  0.36867412
   0.69167793  0.23079917  0.36328390
   0.70547523  0.29354304  0.46382522
   0.63606468  0.41197264  0.48515173
   0.88662818  0.42760940  0.59045751
   0.90383826  0.30718245  0.59094492
   0.94840483  0.37962835  0.67790180
   0.70628488  0.34989457  0.60527619
   0.72799860  0.46255753  0.64953045
   0.67505716  0.37317225  0.71164209
   0.76681116  0.33374396  0.81874063
   0.77576180  0.49859144  0.36175205
   0.79261157  0.56730092  0.45459331
   0.81354515  0.44774313  0.45848888
   0.87443201  0.61633514  0.28610293
   0.98722343  0.58737075  0.28559106
   0.95445984  0.65317935  0.37504842
   0.03952869  0.47043384  0.37251521
   0.17513637  0.45319464  0.49711979
   0.19364990  0.40643122  0.39466498
   0.24323471  0.51478475  0.41493529
   0.38616222  0.50967387  0.51501897
   0.41657896  0.40709745  0.55018105
   0.32155279  0.45088204  0.60416747
   0.37320173  0.29116117  0.47446037
   0.44262110  0.24576762  0.02423559
   0.43469995  0.32643432  0.11697855
   0.35224928  0.31976668  0.03711522
   0.32382678  0.27333621  0.24646483
   0.22748929  0.21930519  0.20137287
   0.26899964  0.31950156  0.15102273
   0.35815432  0.10764816  0.20011702
   0.94199669  0.21586593  0.87643000
   0.31625398  0.56240905  0.26597375
   0.62890432  0.61092338  0.65953948
   0.51925486  0.11394846  0.61822708
   0.97781553  0.39808282  0.10273816
   0.44630956  0.84966158  0.87966260
   0.70220320  0.16697467  0.00706973
   0.18591401  0.14023244  0.86153990
   0.80507255  0.62461942  0.94409285
   0.56022839  0.95689293  0.24269891
   0.63920667  0.56795128  0.16756633
   0.46067553  0.75051130  0.54337142
   0.75396831  0.01665191  0.62313014
   0.10414275  0.17452376  0.57864744
   0.21154830  0.50170760  0.87514039
   0.99195217  0.15780530  0.31515592
   0.49257386  0.37260200  0.87516909
   0.15119216  0.80341190  0.12116983
   0.87531208  0.87204099  0.41187766
   0.02548591  0.85280780  0.77389399
   0.13915024  0.71230200  0.56178016
   0.88332282  0.93469085  0.03777010
   0.61763910  0.34517522  0.36817909
   0.81307502  0.35664895  0.69110061
   0.91136112  0.52355335  0.38833384
   0.30409652  0.40535793  0.47117691
   0.34602434  0.21213335  0.12271765
   0.36023257  0.70858036  0.29053423
   0.70427755  0.64260712  0.53357775
   0.62385089  0.21406868  0.67680580
   0.98181756  0.27344634  0.01189619
   0.31998105  0.91194380  0.81878433
   0.83056065  0.14729719  0.92765990
   0.04031565  0.17280354  0.81728437
   0.73637503  0.51599855  0.85809842
   0.61384486  0.87259829  0.12840372
   0.70242881  0.43231847  0.14914916
   0.36548633  0.64680962  0.61885329
   0.70953510  0.89903014  0.71692060
   0.20428099  0.28211558  0.61222728
   0.18475088  0.34840931  0.86476698
   0.84080262  0.16960345  0.35179508
   0.43377209  0.47502465  0.97361093
   0.20791403  0.90111551  0.23263273
   0.90736418  0.88121452  0.55991308
   0.06367393  0.74384375  0.87863240
   0.11965253  0.65013038  0.42659311
   0.94789298  0.91254055  0.17452984
   0.51131235  0.43544717  0.43313900
   0.89807797  0.30611297  0.80696038
   0.96032832  0.39443174  0.45331317
   0.28068928  0.28642306  0.37767814
   0.46903225  0.12490978  0.11928129
Direct configuration=   150
   0.39862654  0.52237748  0.28833564
   0.24779273  0.50635939  0.23745299
   0.30393420  0.65511072  0.27675990
   0.67772234  0.68413982  0.70749035
   0.55765501  0.57107860  0.70482288
   0.63649824  0.60450958  0.56789181
   0.51311249  0.04965122  0.69914610
   0.45781184  0.08253688  0.53551569
   0.55727888  0.18563424  0.61518825
   0.07485421  0.35808538  0.13849856
   0.93660481  0.46267505  0.15360154
   0.94969613  0.35723624  0.02577740
   0.48909311  0.93388268  0.91695406
   0.48206242  0.76442782  0.90042459
   0.36960070  0.85830863  0.83079347
   0.63878399  0.11750155  0.94192387
   0.65866381  0.18724454  0.09104763
   0.78189352  0.17778071  0.98621195
   0.16551259  0.13981399  0.96725139
   0.28267659  0.14347199  0.84690881
   0.11788813  0.15039715  0.80959444
   0.74301233  0.67700008  0.95094208
   0.91369080  0.65440922  0.97200809
   0.82503917  0.54403448  0.89899695
   0.45500766  0.92574553  0.22046116
   0.56771591  0.99766958  0.32329894
   0.61954534  0.92213581  0.19223506
   0.70323164  0.59654660  0.20398718
   0.55279875  0.62125983  0.14463918
   0.62289603  0.47621758  0.13123831
   0.45210342  0.81168274  0.60378644
   0.50453353  0.77705665  0.45009438
   0.40207651  0.67635471  0.54209748
   0.81528493  0.06421597  0.68531790
   0.75961159  0.06039286  0.52707155
   0.71159641  0.95492385  0.63942594
   0.17885033  0.09721517  0.55740575
   0.01802611  0.11887243  0.59558724
   0.11802970  0.24442593  0.60409244
   0.18641907  0.52548579  0.79204200
   0.25368150  0.58766819  0.93062356
   0.21398515  0.42719277  0.91656256
   0.99891858  0.11599615  0.22966190
   0.08054178  0.19330372  0.34918581
   0.91701669  0.18241558  0.35010336
   0.56528806  0.35534402  0.91944945
   0.47518542  0.34292191  0.77636255
   0.43066629  0.44482721  0.89485023
   0.20028662  0.83759213  0.05421727
   0.10615645  0.70942113  0.10926633
   0.16650095  0.83320677  0.20751258
   0.93472854  0.95194385  0.39307504
   0.83497897  0.82855800  0.34587119
   0.86819325  0.84643272  0.50562670
   0.93228376  0.82847926  0.76281026
   0.05423806  0.94126963  0.74090659
   0.07755064  0.80487657  0.82806409
   0.05359367  0.67621906  0.58937360
   0.16869671  0.79470510  0.60968482
   0.15614781  0.71733722  0.46924331
   0.94792988  0.99357324  0.01475413
   0.80698188  0.91417692  0.99191363
   0.88201225  0.90065388  0.13740651
   0.55998089  0.32016514  0.31178419
   0.71043877  0.31323037  0.36959054
   0.60693924  0.41792867  0.43729176
   0.87926623  0.37209095  0.63784730
   0.71907126  0.36276416  0.67233116
   0.82980837  0.32780908  0.78777259
   0.82826667  0.50179813  0.39185532
   0.93539396  0.60906403  0.33407576
   0.98868207  0.48233764  0.41538060
   0.22830883  0.45128500  0.45612057
   0.34982769  0.42526250  0.55616134
   0.30764667  0.31180223  0.45090898
   0.39650667  0.27666914  0.04421230
   0.28815449  0.26275635  0.17374742
   0.39108414  0.14734433  0.14584761
   0.43993019  0.55081328  0.34277548
   0.42753144  0.52708469  0.22469784
   0.38969064  0.45015505  0.31105090
   0.26335497  0.48899924  0.16762439
   0.17483713  0.52536575  0.23656674
   0.24960053  0.44242824  0.27347374
   0.23055905  0.67710142  0.28128543
   0.72265339  0.64790157  0.75212358
   0.63340478  0.72855519  0.74261086
   0.71973976  0.72360854  0.65635404
   0.58706706  0.52637643  0.76173661
   0.53611977  0.51949878  0.65706659
   0.50052198  0.61251605  0.72836034
   0.59306389  0.55133135  0.53647727
   0.51857503  0.08875531  0.76314363
   0.57112865  0.00493709  0.70253475
   0.45121453  0.00677726  0.70344217
   0.38478120  0.07211993  0.54600130
   0.48076554  0.01850205  0.50881995
   0.46446545  0.13787468  0.49013099
   0.54832062  0.22517391  0.55081229
   0.12948972  0.39783811  0.11064448
   0.08434726  0.28882494  0.11782655
   0.08228928  0.37078673  0.20936250
   0.86541885  0.46912277  0.14084585
   0.97774448  0.52443728  0.15121595
   0.93838150  0.44422964  0.22530012
   0.89577674  0.39621844  0.99145489
   0.55917444  0.92808077  0.89608165
   0.49072250  0.94335011  0.99220527
   0.45436711  0.98861657  0.88406927
   0.50382107  0.73626590  0.83919258
   0.43314350  0.71823597  0.93472606
   0.54182634  0.77239553  0.94105800
   0.34474219  0.79337186  0.80977048
   0.67233181  0.12100021  0.87878588
   0.57396159  0.14486345  0.93248399
   0.63397149  0.04477800  0.95621818
   0.67439385  0.14414206  0.14939267
   0.58609545  0.17428355  0.08214785
   0.67900275  0.25640453  0.10143122
   0.81263405  0.22401260  0.03335003
   0.17034190  0.20102553  0.00584412
   0.20867019  0.08485212  0.99496793
   0.09807488  0.11367137  0.97362579
   0.29921363  0.07775344  0.82713791
   0.32254135  0.15925718  0.90754633
   0.29898210  0.19700552  0.80165032
   0.14880071  0.16008629  0.74456689
   0.73434227  0.68906273  0.02411046
   0.69276091  0.63563723  0.92230570
   0.74596527  0.74092788  0.91472760
   0.92270501  0.72489143  0.95064685
   0.96890906  0.61228349  0.94295463
   0.92262718  0.65553949  0.04359829
   0.89162176  0.51690728  0.89109223
   0.41482976  0.97951622  0.24710242
   0.43675175  0.86058335  0.25148036
   0.45532425  0.92596477  0.14923545
   0.52967980  0.06064472  0.31941683
   0.63933770  0.01372193  0.32232012
   0.56190547  0.95819162  0.38657888
   0.68638092  0.94338672  0.21795938
   0.70079072  0.58351955  0.27294915
   0.69403388  0.67304162  0.19039379
   0.76549567  0.56949986  0.17395682
   0.53106981  0.65809677  0.20295837
   0.49528735  0.57792870  0.12314122
   0.56902568  0.66477110  0.08606916
   0.56206575  0.45606309  0.08978748
   0.41115808  0.87099095  0.59732637
   0.52139651  0.83262982  0.62090528
   0.42035781  0.77336860  0.66027030
   0.57227147  0.77160616  0.47378700
   0.48522039  0.84550914  0.42228899
   0.49458912  0.73396285  0.39040132
   0.39384934  0.63376483  0.48123005