unknown system                          
           1
    15.000000    0.000000    0.000000
     0.000000   15.000000    0.000000
     0.000000    0.000000   15.000000
   C    Co   H    N    O 
    92     1   184    19    18
Direct configuration=    50
   0.79063059  0.38648934  0.53497224
   0.71924367  0.23933342  0.49487537
   0.69336625  0.37050280  0.41025921
   0.96122840  0.86190661  0.78183737
   0.03290770  0.72025166  0.71061520
   0.89391989  0.71497461  0.79178333
   0.89291878  0.94227302  0.16473336
   0.88410590  0.78086130  0.11620541
   0.92532278  0.90326736  0.01479299
   0.23551595  0.84144972  0.66932097
   0.27348012  1.00083286  0.64515307
   0.38659900  0.88317097  0.61744320
   0.58006411  0.11486857  0.29603650
   0.72772926  0.06633423  0.34376608
   0.59208105  0.05838598  0.44396854
   0.38606913  0.50293350  0.16575096
   0.48707243  0.43262663  0.28114646
   0.48828375  0.58978378  0.26685961
   0.96704725  0.21814425  0.32528433
  -0.00460405  0.38682934  0.34178472
   0.86524308  0.32648687  0.26590809
   0.66265276  0.94974131  0.88362705
   0.58358301  0.90476286  0.74639986
   0.49305124  0.94154499  0.87795011
   0.17994323  0.37288999  0.13295503
   0.06435861  0.29001220  0.04895385
   0.04098466  0.44501907  0.10774352
   0.79366359  0.18884925  0.82484800
   0.93535961  0.11107347  0.79645545
   0.79972680  0.08646202  0.70254072
   0.97289736  0.64939416  0.35150191
   0.96901077  0.61851751  0.51219009
   0.93454436  0.76809996  0.45005170
   0.13112319  0.18055057  0.47256124
   0.07559700  0.50681135  0.77686891
   0.16125790  0.26972835  0.45435201
   0.13964262  0.50087042  0.70487624
   0.21532702  0.29217617  0.37603670
   0.21223287  0.55877648  0.70810550
   0.21401685  0.13508526  0.33677255
   0.17169938  0.60313057  0.86069210
   0.07714177  0.15802770  0.55887481
   0.99679558  0.44310083  0.78259349
   0.15501775  0.11863085  0.41015910
   0.09560302  0.54712512  0.85294812
   0.24419865  0.22075436  0.32133234
   0.23142690  0.60720278  0.78840118
   0.24041209  0.05299210  0.27988230
   0.19336603  0.65804345  0.94026855
   0.25099614  0.37977700  0.35699045
   0.27782515  0.56387188  0.63657107
   0.28993533  0.52360060  0.40352788
   0.33772237  0.55028641  0.49072256
   0.14052959  0.16503546  0.63754840
   0.03367389  0.06188637  0.55281373
   0.99824919  0.21836746  0.56804476
   0.03060334  0.34637041  0.79328439
   0.92506587  0.45756780  0.85540370
   0.95250942  0.45443755  0.68746360
   0.32442036  0.01119474  0.31164754
   0.16159151  0.98585977  0.26298527
   0.26136945  0.08240476  0.18833681
   0.24469805  0.74225269  0.92135540
   0.25000918  0.59949680  0.00100949
   0.10864114  0.68809311  0.99004455
   0.22059120  0.58846824  0.36568030
   0.35882288  0.65001597  0.49187727
   0.24689665  0.68522506  0.36878740
   0.27800604  0.70775489  0.46810894
   0.60257320  0.27878321  0.08470506
   0.59155881  0.12273201  0.05483169
   0.45302402  0.22126312  0.07888960
   0.70454828  0.55732090  0.95998459
   0.54169711  0.56556158  0.98367950
   0.63892109  0.70196971  0.01239277
   0.53538002  0.33210734  0.64233198
   0.42702514  0.39447735  0.74903230
   0.54700629  0.30394637  0.81176634
   0.42542293  0.23284635  0.70933493
   0.46376835  0.15210575  0.66438879
   0.48059813  0.33092146  0.55381596
   0.36918991  0.39540762  0.83098742
   0.63280188  0.36224472  0.80557794
   0.58485215  0.65055426  0.53928773
   0.71413523  0.73937810  0.60232938
   0.67457612  0.59322489  0.65952428
   0.63231891  0.86156500  0.22120928
   0.47450611  0.86020113  0.17814830
   0.51970680  0.84539815  0.33648473
   0.12374559  0.08882984  0.89709737
   0.28084914  0.11281409  0.86811293
   0.23306490  0.99043932  0.96237841
   0.19854462  0.43525543  0.53097798
   0.85403043  0.34755462  0.54759132
   0.76848035  0.39424776  0.60352016
   0.81018037  0.44701532  0.49780653
   0.69158326  0.20565564  0.43497192
   0.68088719  0.22476973  0.55187719
   0.78711279  0.20754797  0.50398246
   0.65649438  0.32369493  0.35940336
   0.90335048  0.88465357  0.82090754
   0.96560838  0.90297427  0.72191330
   0.02152222  0.87605340  0.82512274
   0.04141465  0.74738192  0.64583107
   0.01240840  0.65171358  0.69551396
   0.09036829  0.71912423  0.75335524
   0.89384284  0.65018669  0.76089462
   0.85134262  0.99884927  0.14774995
   0.96080754  0.97016966  0.16178432
   0.87415471  0.91016554  0.22913113
   0.83500693  0.77800418  0.17527082
   0.94778008  0.74926116  0.12725854
   0.85785289  0.74696592  0.05697842
   0.92333013  0.84717277  0.96617518
   0.18559120  0.82237731  0.61937992
   0.19828813  0.87120360  0.72609204
   0.26359500  0.77583018  0.70206337
   0.23286805  1.02290148  0.58950407
   0.33288618  0.04556900  0.64094995
   0.23645507  0.00987640  0.70892143
   0.42730898  0.93944424  0.58718409
   0.61327193  0.18243092  0.29008488
   0.50721697  0.11657056  0.31056248
   0.59013368  0.07084777  0.23748797
   0.75718339  0.03585202  0.40341782
   0.75471241  0.13524089  0.32564924
   0.73754725  1.02077150  0.28606499
   0.63256449  0.03585229  0.50499528
   0.32324973  0.47122057  0.19135521
   0.41288982  0.45441381  0.11882575
   0.37569526  0.56801429  0.13814110
   0.46692336  0.41067090  0.34705532
   0.55878779  0.43930937  0.27323680
   0.47423987  0.37705372  0.23412667
   0.54081249  0.58071609  0.31531563
   0.99821040  0.17820338  0.27072233
   0.90822914  0.17909647  0.34681344
   0.02158348  0.21541834  0.37325843
   0.06318340  0.38750457  0.32214589
  -0.00764858  0.38473632  0.41569138
   0.95904946  0.44564386  0.31770642
   0.85063468  0.40077098  0.26311783
   0.65427008  0.97445213  0.95290904
   0.70614935 -0.00275499  0.85080353
   0.69433110  0.88385743  0.88908158
   0.53040998  0.85626950  0.73395914
   0.64424899  0.87150971  0.73503999
   0.57221308  0.95253659  0.69558978
   0.43284834  0.92108266  0.83446613
   0.18867343  0.29935119  0.16022343
   0.17551844  0.42180606  0.18862028
   0.23705990  0.38909000  0.09022016
   0.06552192  0.23794801  0.09844984
   0.11397160  0.26610296  0.99768461
   1.00220575  0.29229827  0.01406703
   0.96816636  0.42744341  0.07686191
   0.79831299  0.18412758  0.90053798
   0.72579495  0.17834044  0.81311656
   0.81614532  0.25705584  0.80009323
   0.95173628  0.04633073  0.82671349
   0.94997694  0.15920403  0.84586912
   0.97436814  0.11799154  0.73583795
   0.84524508  0.04168121  0.66527805
   0.03848054  0.59740563  0.52129393
   0.92967884  0.55925878  0.48770786
   0.96708781  0.70127539  0.30018690
   0.91412942  0.60184076  0.34076311
   0.94477204  0.64882110  0.57370480
   0.03440827  0.61027689  0.34721403
   0.92853883  0.80659806  0.38726199
   0.13973469  0.04809513  0.42231459
   0.05032195  0.54678546  0.90969615
   0.29314503  0.23251184  0.27233812
   0.29499040  0.64411163  0.78965498
   0.27691247  0.39016606  0.28747290
   0.33176042  0.61632969  0.64134697
   0.33827853  0.50736696  0.35485107
   0.39982539  0.50706669  0.50236507
   0.15584758  0.23898781  0.65409985
   0.10159054  0.13577539  0.69244154
   0.20067122  0.12386298  0.62324796
  -0.03177351  0.06905963  0.51784657
   0.07972668  0.01279638  0.51877360
   1.02186490  0.04189311  0.62023469
   0.96200177  0.19415455  0.62816721
   0.01720187  0.28664141  0.58031207
   0.95409151  0.22077516  0.50736590
   0.97473239  0.29762893  0.78598905
   0.08144475  0.33319778  0.74277678
   0.05486239  0.34021356  0.86338822
   0.87100652  0.40678011  0.83766908
   0.94957697  0.43868503  0.92015644
   0.89511769  0.52484733  0.86106840
   0.89936750  0.39809934  0.68064928
   0.92478788  0.52176084  0.67309588
   1.00557888  0.44682031  0.63692365
   0.34058487  0.95891217  0.26522544
   0.37847173  0.06112177  0.31756747
   0.31733755 -0.01997731  0.37783676
   0.17832321  0.92680871  0.22260661
   0.13582632  0.96027795  0.32720430
   0.10571625  0.01831565  0.22670793
   0.21740399  0.13034420  0.15946334
   0.32914082  0.11313069  0.19594585
   0.26812462  0.02393703  0.14508147
   0.26013115  0.77934524  0.98134481
   0.31072171  0.73218173  0.89261683
   0.20835647  0.79140604  0.87657673
   0.21508129  0.53712142  0.01965720
   0.31250742  0.58175717  0.97061756
   0.26947254  0.63189480  0.06324710
   0.11935970  0.70495587  0.06150082
   0.07022436  0.73862598  0.95130796
   0.06573794  0.63121357  0.00267045
   0.15821934  0.57404197  0.40120052
   0.20511515  0.56577186  0.29825547
   0.41182725  0.66348503  0.44414028
   0.38690154  0.67457510  0.55661600
   0.18660961  0.72402939  0.35115251
   0.29950501  0.70071266  0.32366902
   0.30055827  0.77841927  0.47132060
   0.22922881  0.69303841  0.52016942
   0.66351329  0.26999090  0.04393442
   0.62530042  0.28208419  0.15602015
   0.58091597  0.34292241  0.06049362
   0.60780930  0.12506666  0.97907933
   0.54985138  0.06585798  0.06714001
   0.65708489  0.11706590  0.09313998
   0.41041569  0.15967894  0.08027046
   0.75277675  0.55052011  0.01518440
   0.74089918  0.60177409  0.90912039
   0.68069958  0.49775146  0.92410885
   0.67157546  0.73857078 -0.04763593
   0.68208741  0.70682356  0.07127622
   0.57190751  0.72641839  0.02399279
   0.48793678  0.61204761  0.00755939
   0.31110485  0.34772721  0.83849060
   0.40868582  0.33033380  0.55766415
   0.44504548  0.15071826  0.59538488
   0.36431842  0.25432937  0.67642369
   0.39826003  0.21494467  0.77862456
   0.55515462  0.40165712  0.65178078
   0.58460059  0.28008135  0.64021217
   0.38294024  0.39581703  0.68905835
   0.47469668  0.45354702  0.75014713
   0.55985268  0.23430380  0.81906444
   0.50654642  0.33136256  0.86639285
   0.32904751  0.45715514  0.83772675
   0.40943090  0.40232236  0.89203652
   0.49839149  0.27014590  0.51232816
   0.50023656  0.39163121  0.51428791
   0.42969891  0.09560704  0.69435851
   0.53918382  0.14889636  0.66183936
   0.67293879  0.35869071  0.74510765
   0.66972103  0.35681028  0.86893832
   0.53213410  0.60653360  0.56516389
   0.60419793  0.61777022  0.47841589
   0.55523254  0.71707383  0.51622300
   0.67597826  0.80038556  0.59833309
   0.75235452  0.74252148  0.54091300
   0.75834555  0.73636440  0.66020543
   0.72834674  0.61278957  0.70955638
   0.66483705  0.79325235  0.22435881
   0.67481195  0.90308635  0.26802203
   0.63653405  0.88430493  0.14959716
   0.46864445  0.92486185  0.14443073
   0.41145406  0.83620398  0.20549366
   0.49238377  0.80862870  0.12961780
   0.44792495  0.83608701  0.33961223
   0.60562386  0.43242919  0.81301193
   0.10290314  0.13907689  0.84491932
   0.10456064  0.11410761  0.96298707
   0.08199573  0.02576127  0.89026815
   0.23751821  0.16763628  0.83302385
   0.18915849  0.93237901  0.94992314
   0.21787824  1.00800399  0.03193183
   0.30098958  0.96875881  0.95661589
   0.72748153  0.33623539  0.48467608
   0.96133695  0.76725453  0.75843775
   0.89254863  0.87363900  0.09326665
   0.30332460  0.90619963  0.64492914
   0.63373510  0.07322447  0.36461909
   0.44492325  0.51456219  0.24577304
   0.94712717  0.30987879  0.30269931
   0.57341112  0.94301575  0.83458431
   0.09455793  0.37671774  0.08301467
   0.83904302  0.12341111  0.77471707
   0.97063821  0.68583012  0.43966904
   0.24812855  0.43918216  0.42123026
   0.27010955  0.52258092  0.55863953
   0.54243064  0.20673059  0.07495703
   0.62432564  0.60630433  0.98696800
   0.48082602  0.31316788  0.72836448
   0.65497641  0.66198851  0.60698155
   0.54343550  0.86166006  0.25030006
   0.21429548  0.06059827  0.89915716
   0.70178185  0.45241454  0.39547722
   0.83645636  0.73795653  0.84922242
   0.94491944  0.98254791  0.99976546
   0.41557029  0.80766671  0.61427380
   0.51167279  0.07037684  0.45234800
   0.47037084  0.66195650  0.22874836
   0.80751075  0.27035920  0.24813459
   0.48386670  0.94430935  0.95966580
   0.06636815  0.51298383  0.14892201
   0.72352298  0.09549747  0.67418657
   0.91034084  0.79816621  0.52293328
   0.12841513  0.33027728  0.50930756
   0.12779838  0.43980383  0.64192780
   0.42819426  0.29694228  0.09308999
   0.52768768  0.49301737  0.95384059
   0.63750314  0.51824764  0.66131443
   0.57466616  0.83718563  0.39883398
   0.36343112  0.11247124  0.86769364
Direct configuration=   100
   0.79310385  0.37497138  0.53098872
   0.70980898  0.24238376  0.49690682
   0.68136193  0.37073884  0.40546624
   0.98368753  0.85420697  0.78538455
   0.04170085  0.72282641  0.71229522
   0.89789444  0.71621794  0.79377264
   0.89707487  0.95036630  0.17175165
   0.89143606  0.78638686  0.11625509
   0.92435180  0.90449466  0.01336299
   0.23747764  0.84152304  0.67165857
   0.27378299  0.99786069  0.63991512
   0.38082871  0.88139730  0.60873938
   0.57779593  0.12609053  0.29250260
   0.72116542  0.05716238  0.34850534
   0.59323799  0.04381064  0.43661026
   0.39726226  0.51080422  0.15769447
   0.46657398  0.42960411  0.27678128
   0.47960765  0.59375392  0.26940216
   0.97568812  0.22846859  0.32089168
  -0.00628597  0.39060422  0.33805952
   0.85485483  0.32410739  0.27370339
   0.65652873  0.94316619  0.88254221
   0.57305172  0.91063147  0.74373373
   0.50020210  0.91604855  0.88714019
   0.18819832  0.36064224  0.12593327
   0.05428418  0.30405611  0.03911565
   0.05280795  0.45279102  0.10183440
   0.78905808  0.18160251  0.84379435
   0.93408647  0.11145186  0.80647884
   0.80076906  0.09964832  0.70846378
   0.99674587  0.64483268  0.34929529
   0.96913289  0.61444538  0.51011310
   0.94659010  0.76496766  0.44527034
   0.12115360  0.17233121  0.46915248
   0.08049226  0.50682533  0.77687323
   0.15243408  0.26329063  0.45398592
   0.14418675  0.49909208  0.70772200
   0.20867188  0.27611200  0.38120370
   0.21733794  0.55973099  0.71421994
   0.20852640  0.11726026  0.34092217
   0.17186283  0.61484149  0.86314560
   0.07179586  0.15999926  0.56178549
   1.00390871  0.43614317  0.77833193
   0.15601317  0.10322000  0.41692707
   0.09430339  0.56202864  0.85107132
   0.23557661  0.20573191  0.32695927
   0.22865766  0.61984994  0.79215617
   0.24152547  0.04269593  0.27480739
   0.19656245  0.66225280  0.95402779
   0.25031753  0.36116960  0.36732220
   0.27820255  0.56734874  0.63369501
   0.28280663  0.51785773  0.40492013
   0.33403374  0.54442360  0.48689449
   0.13624057  0.18416730  0.63595862
   0.03440519  0.06398839  0.56328090
   0.98927887  0.22415551  0.57550773
   0.05061374  0.34165490  0.78177854
   0.94431211  0.44787454  0.86115977
   0.93143171  0.43845547  0.70305683
   0.31577131 -0.00946635  0.31988733
   0.16459238  0.97845760  0.25602787
   0.27042584  0.08707641  0.18209744
   0.25231760  0.74675721  0.94129641
   0.24718121  0.60292802  0.01919609
   0.11408909  0.69072471  1.00837683
   0.21010954  0.58577163  0.38040466
   0.37021407  0.64008926  0.47707835
   0.25052450  0.67971232  0.37650584
   0.29247754  0.70707099  0.46082880
   0.59875042  0.28391889  0.07784099
   0.56444700  0.11855589  0.05983794
   0.44631295  0.21543981  0.07344665
   0.70971947  0.56144504  0.96469645
   0.54589183  0.57492069  0.96290097
   0.62609973  0.70836643 -0.00088736
   0.52246780  0.33963346  0.63210458
   0.42870198  0.40235040  0.74422111
   0.55550894  0.29944994  0.78908839
   0.42311052  0.23959165  0.71786018
   0.47501863  0.15755084  0.68007109
   0.45984990  0.34704892  0.55178378
   0.36998879  0.39260275  0.82435338
   0.62913471  0.36261778  0.80325985
   0.59195890  0.65257467  0.53848998
   0.72036247  0.74135775  0.59585013
   0.68064145  0.59447962  0.66523072
   0.63580434  0.87651947  0.22170537
   0.47150559  0.86682416  0.17722439
   0.51797852  0.84587913  0.33233865
   0.11518800  0.09729898  0.91638413
   0.27274057  0.13469512  0.87068145
   0.25558787  0.99568509  0.95055373
   0.19754027  0.43207053  0.53237680
   0.86278133  0.35953750  0.51256526
   0.78233938  0.35289717  0.60138810
   0.78305851  0.44511896  0.51939353
   0.65675009  0.21435748  0.45151582
   0.69056018  0.23514209  0.56915233
   0.76720289  0.20218421  0.47934005
   0.62521530  0.32865827  0.37995009
   0.91893139  0.88262867  0.80012702
   1.00931544  0.89084460  0.72731911
   0.02613698  0.86597370  0.84268179
   0.04067854  0.74793793  0.63961958
   0.03305142  0.65191089  0.70764527
   0.10575148  0.73416102  0.75018847
   0.90734070  0.64164995  0.78161806
   0.87532442  1.01724703  0.14348664
   0.96128771  0.95945227  0.20499325
   0.84507791  0.92516243  0.21426130
   0.84932603  0.77933497  0.17660813
   0.95958449  0.76149306  0.13171200
   0.86136824  0.75467688  0.05748455
   0.91647349  0.84353919  0.97176299
   0.17549601  0.85108512  0.63457291
   0.22288858  0.83328935  0.74258691
   0.26036976  0.77883663  0.64733077
   0.20574505  0.99637514  0.61102526
   0.31111792  0.03172427  0.58626674
   0.26961905  0.03250704  0.70277316
   0.42778413  0.93405522  0.58615628
   0.61778663  0.17756992  0.26416612
   0.52307895  0.15792605  0.32787817
   0.55344981  0.07414855  0.24889595
   0.73890242 -0.00606136  0.38211274
   0.75762653  0.11534563  0.36565134
   0.73270715  1.05523706  0.27557062
   0.63074132 -0.00677332  0.47021210
   0.33524885  0.47429345  0.17178292
   0.43085963  0.47472955  0.10424321
   0.38888136  0.58284645  0.13740291
   0.39967381  0.41164783  0.30485884
   0.51997778  0.43449278  0.32904091
   0.48483485  0.37590124  0.23321346
   0.51449609  0.58400090  0.33867794
   1.00644748  0.20224987  0.25963943
   0.92400950  0.17976970  0.33615355
   0.02844487  0.22644930  0.37187752
   0.06081350  0.37812484  0.30225445
   0.00804048  0.37907380  0.41029475
   0.96032952  0.45729121  0.32065138
   0.83472044  0.39190710  0.26172113
   0.65243820  0.94791148  0.95449692
   0.67653640  0.00776387  0.85161500
   0.70896603  0.89185764  0.87234911
   0.50342108  0.91185887  0.71807640
   0.60273590  0.84487940  0.71903400
   0.61178544  0.96749580  0.71074354
   0.44306789  0.91008401  0.84776304
   0.19427783  0.29595434  0.14740544
   0.20070375  0.41493549  0.17357068
   0.23534051  0.37413892  0.07071082
  -0.00093439  0.26771572  0.08108274
   0.10202737  0.25621724  1.01146241
   1.01741878  0.33147588 -0.02050887
   0.98945224  0.44715842  0.06125042
   0.80935739  0.16572863  0.91086359
   0.71498647  0.15652554  0.84077694
   0.78947692  0.25250720  0.83343660
   0.92746519  0.08789427  0.87755357
   0.98082519  0.17086107  0.79995158
   0.95522994  0.05777943  0.75938536
   0.84332086  0.05535481  0.66772165
   0.03085211  0.57576731  0.50238904
   0.91276040  0.56864011  0.50506185
   1.03910898  0.69622169  0.31733226
   0.93836003  0.63277128  0.30989696
   0.96351294  0.65218535  0.57281030
   0.03051655  0.57920185  0.35354658
   0.95715805  0.80870922  0.38540452
   0.13571137  0.03659408  0.43799200
   0.04134788  0.56738197  0.89907802
   0.26872470  0.21948842  0.26225972
   0.29064050  0.65685110  0.79330725
   0.28696835  0.37316513  0.30662225
   0.32775910  0.61644035  0.63978585
   0.33060944  0.51043002  0.34674631
   0.38957217  0.50097575  0.49304503
   0.15497569  0.25024827  0.62075479
   0.10255637  0.17169455  0.70117829
   0.19842737  0.14355251  0.62836562
  -0.00091847  0.05151336  0.50044594
   0.08838341  0.01887123  0.57130823
   0.98547789  0.05907259  0.61924658
   0.96676149  0.21446890  0.64698609
   0.01207153  0.29310145  0.57515549
   0.94112397  0.21630862  0.52371677
   0.99811805  0.29348921  0.78980975
   0.08877484  0.32817497  0.71945117
   0.09207137  0.33984932  0.84165995
   0.89668467  0.39441453  0.86817779
   0.98054302  0.45706273  0.92489707
   0.90382241  0.50836459  0.85037559
   0.86773309  0.42612751  0.72965764
   0.93034307  0.50633266  0.67810037
   0.94851084  0.39786373  0.64594620
   0.33737218  0.93014125  0.28351626
   0.36707870  0.04028806  0.32879653
   0.29904347 -0.03317945  0.38874604
   0.18701888  0.93017806  0.20421883
   0.15120788  0.93730597  0.31388350
   0.10253369  0.00745485  0.22945622
   0.20649887  0.11455750  0.15070030
   0.31099437  0.14604892  0.18908297
   0.30143884  0.03427676  0.13710004
   0.26368129  0.79046359  1.00046576
   0.32231894  0.73028546  0.92127568
   0.22773541  0.78826783  0.88914687
   0.20623293  0.55584479  0.05602290
   0.30148982  0.56454519  0.98035158
   0.29076108  0.63746723  0.06895136
   0.13215801  0.72460534  0.06937343
   0.07180898  0.73216646  0.96583510
   0.07260855  0.63611115  0.03938933
   0.14952518  0.57309762  0.42041103
   0.18991242  0.56728240  0.31131546
   0.41910334  0.64210242  0.42093682
   0.40701815  0.66155482  0.53409362
   0.19875512  0.72876185  0.35993102
   0.30153158  0.68103625  0.31928905
   0.31531066  0.77456270  0.45790874
   0.24600549  0.69287148  0.51702482
   0.66291323  0.27036464  0.04366751
   0.60814790  0.30391348  0.14576776
   0.57547210  0.34737201  0.04351967
   0.61600398  0.11440803  1.01299470
   0.51028711  0.07152972  0.03835981
   0.59123208  0.09894543  0.12506487
   0.41333815  0.15658433  0.04835991
   0.75394345  0.56865960  0.02234653
   0.74452884  0.58743575  0.90763781
   0.68907328  0.49666824  0.94560373
   0.61941486  0.74419063 -0.06221781
   0.69556266  0.72481067  0.02327116
   0.56652567  0.73010857  0.04020077
   0.48533623  0.61688472 -0.02756501
   0.32386226  0.33505284  0.82718084
   0.42099307  0.40959407  0.54600612
   0.50564102  0.16597449  0.60942456
   0.36271368  0.25358528  0.67621820
   0.40096547  0.22695868  0.78638021
   0.55943006  0.40356722  0.63642227
   0.57678211  0.28747259  0.61458244
   0.38974898  0.41426988  0.68367995
   0.47727150  0.45369267  0.75805336
   0.58984758  0.23551822  0.77082175
   0.51397688  0.28880452  0.85088270
   0.31397096  0.43738827  0.82824512
   0.40853501  0.39897541  0.88462078
   0.40359780  0.30332233  0.56082017
   0.49660185  0.32948390  0.49140454
   0.42579266  0.10638852  0.67255748
   0.52666173  0.12977890  0.72252634
   0.68355300  0.35579649  0.75717722
   0.64752668  0.35206488  0.87573006
   0.55337493  0.59081417  0.54086287
   0.60942217  0.65723420  0.46426652
   0.55584788  0.71042683  0.55130017
   0.67044792  0.79516593  0.58013518
   0.77018928  0.74763821  0.53980501
   0.75211138  0.75025184  0.66067192
   0.74192826  0.60513449  0.70486314
   0.66058685  0.82873192  0.17318584
   0.66992627  0.86339660  0.28457775
   0.64861438  0.93775602  0.18711402
   0.50151755  0.90458973  0.12231240
   0.41109461  0.90224287  0.19705822
   0.45313571  0.79773129  0.15571680
   0.44242147  0.84186059  0.33360725
   0.60830640  0.43046919  0.80291134
   0.11060352  0.16691244  0.90240501
   0.08990120  0.09360026  0.98666905
   0.07225888  0.05489145  0.87797850
   0.23886001  0.18633082  0.83472136
   0.25059341  0.94173733  0.90053968
   0.21960814  0.96792404  0.00783497
   0.33050973  1.00242732  0.96308664
   0.72741770  0.33359826  0.47734739
   0.97319597  0.76243509  0.76298412
   0.90145406  0.88493318  0.09582167
   0.30367633  0.90742057  0.64868647
   0.62946929  0.07571073  0.36113293
   0.45563109  0.51407888  0.23379839
   0.93781534  0.31784770  0.30879328
   0.57320786  0.91339281  0.83972637
   0.09807955  0.37246890  0.08964041
   0.84184663  0.13453431  0.78058038
   0.97165035  0.67844127  0.43458075
   0.24558389  0.42820980  0.42869424
   0.27143167  0.52039772  0.56192906
   0.53584348  0.21191068  0.06547747
   0.62439733  0.60966544  0.98172753
   0.48313115  0.31903080  0.71925340
   0.67083810  0.65885381  0.60040937
   0.54257004  0.86886717  0.24718762
   0.21195100  0.07934757  0.91287407
   0.70118233  0.44236106  0.37552306
   0.82910201  0.74618305  0.83125419
   0.95455120  0.97751730  0.98564999
   0.40822624  0.80374290  0.60197866
   0.51902708  0.06410008  0.46794724
   0.46238125  0.66432051  0.23146966
   0.80784059  0.25736166  0.25170768
   0.49225644  0.94228085  0.96549256
   0.07193488  0.51881588  0.15054742
   0.72227492  0.10733658  0.68441369
   0.91816386  0.79546776  0.51682072
   0.11557875  0.33361721  0.49523430
   0.12630411  0.44383256  0.64159875
   0.40386916  0.28406745  0.09441556
   0.53205852  0.49265664  0.94308080
   0.63284373  0.52841241  0.67637418
   0.57013668  0.84013461  0.39546141
   0.35663473  0.12513498  0.87350069
Direct configuration=   150
   0.78544142  0.38502970  0.51553258
   0.69704429  0.24456401  0.50406255
   0.68156329  0.36061736  0.39784754
   0.98806213  0.85794230  0.78867529
   0.04848569  0.72539581  0.71105697
   0.90012184  0.72479732  0.78323057
   0.91281280  0.95288067  0.16353007
   0.89034472  0.79391416  0.12901112
   0.93274636  0.90498175  0.00821574
   0.25182423  0.84140965  0.68219249
   0.27832882  0.99418785  0.63627013
   0.38092386  0.87368822  0.59543364
   0.57734379  0.13688578  0.32497619
   0.71578458  0.04853010  0.33311571
   0.59301165  0.03535483  0.44614550
   0.41354314  0.51117861  0.14001832
   0.48353840  0.43292023  0.27100525
   0.48559132  0.58708922  0.26331697
   0.97610893  0.23116564  0.29907461
  -0.02359817  0.39727912  0.31991618
   0.84157641  0.31804896  0.27894535
   0.66174245  0.92680901  0.87766875
   0.56829959  0.90531797  0.74603834
   0.50086603  0.91152769  0.89225308
   0.18431060  0.35659907  0.12035778
   0.05045263  0.30263956  0.04107789
   0.05180240  0.45466203  0.11617109
   0.77930747  0.18229041  0.86464027
   0.92593598  0.10098154  0.81422100
   0.79263922  0.10736948  0.71764536
   1.00227990  0.64580339  0.34198492
   0.95860251  0.60242756  0.49490895
   0.96342551  0.75908593  0.44330674
   0.12127441  0.17400224  0.47623277
   0.08618653  0.50017468  0.78960500
   0.15964807  0.26281079  0.46858398
   0.14408702  0.50370908  0.71261552
   0.20639662  0.27556485  0.38585640
   0.21845239  0.56282932  0.71693247
   0.19879453  0.11590231  0.34185836
   0.18069000  0.61529971  0.86543545
   0.06571861  0.15604308  0.55957625
   1.00430700  0.43269175  0.79195100
   0.14081729  0.10560365  0.41579616
   0.10459786  0.55964997  0.85908864
   0.22767687  0.20113241  0.32638940
   0.23946922  0.61616131  0.79514022
   0.22983301  0.03732119  0.27991382
   0.19725544  0.66653401  0.95037461
   0.23949527  0.36569093  0.36915191
   0.27479663  0.56928084  0.63754412
   0.28307374  0.51330310  0.41159526
   0.33211889  0.54919806  0.49139796
   0.13071745  0.18083419  0.64454047
   0.04271869  0.05701053  0.58183010
   0.97414202  0.20677943  0.55193666
   0.04447220  0.33645909  0.79283980
   0.95383928  0.44204419  0.88046029
   0.94772387  0.44653023  0.70992299
   0.29944946 -0.01446810  0.34455412
   0.15052365  0.97165152  0.25958371
   0.28343710  0.06727039  0.19541237
   0.25624010  0.74539052  0.93354744
   0.24357801  0.59446436  0.00873018
   0.10876555  0.69899589  0.99181781
   0.21022482  0.58038113  0.38320166
   0.36608800  0.64222359  0.47639344
   0.24308289  0.67411229  0.36337768
   0.30254834  0.71066907  0.43688980
   0.57442291  0.28431465  0.07703337
   0.56381470  0.12615568  0.03263303
   0.43010764  0.21462721  0.06623986
   0.70801863  0.57806774  0.96764586
   0.54449101  0.57005265  0.95315031
   0.62322201  0.71247561 -0.01460494
   0.52794964  0.34720657  0.62640555
   0.42204115  0.40210981  0.74455337
   0.55618816  0.30072427  0.77459668
   0.42735144  0.23604933  0.70487124
   0.46717171  0.14623638  0.69185963
   0.46343129  0.34995497  0.54780150
   0.37398802  0.38985446  0.83316037
   0.62775763  0.37614518  0.79274618
   0.60341189  0.64996182  0.53260360
   0.73333585  0.73875109  0.59158849
   0.67988320  0.60806132  0.66916540
   0.63424065  0.87693957  0.21947654
   0.48041087  0.86704269  0.16567879
   0.51749590  0.85084117  0.32821169
   0.12202202  0.08977072  0.92889076
   0.27562205  0.15753205  0.89838096
   0.26054867  0.99646429  0.93682029
   0.19333919  0.43851559  0.53715182
   0.84455190  0.38699868  0.47223899
   0.80638099  0.34836260  0.57661302
   0.75806997  0.45256220  0.53479072
   0.62829926  0.23948937  0.52250931
   0.73692729  0.23132754  0.56562643
   0.71375493  0.19083411  0.45642157
   0.63941746  0.32122347  0.35652977
   0.92923504  0.88373606  0.82529289
   0.99391184  0.89446977  0.72334720
   0.05154484  0.87530844  0.82387483
   0.04834512  0.76200618  0.64952579
   0.04014769  0.65180387  0.70300408
   0.11647948  0.73840570  0.73507531
   0.89918654  0.65767512  0.75229043
   0.95197074  1.00517193  0.13481907
   0.94305976  0.92731657  0.22687693
   0.84519354  0.98144380  0.17445345
   0.81709881  0.78405524  0.13729023
   0.92317209  0.78317540  0.19415566
   0.91006266  0.75040401  0.07301185
   0.93384804  0.84408020  0.96472302
   0.17832586  0.85654261  0.66842102
   0.26576994  0.85259092  0.75497524
   0.25823583  0.77150853  0.66293478
   0.20590719  1.00288044  0.62315910
   0.31723822  0.03139101  0.58811602
   0.29267478  0.01582387  0.70714883
   0.41655797  0.91907582  0.55256526
   0.62374309  0.16702039  0.27356263
   0.56714952  0.19259621  0.37262567
   0.51620099  0.11122286  0.29017867
   0.73195349 -0.01155759  0.37110287
   0.76297629  0.10776171  0.34223460
   0.71679601  1.03713405  0.26229199
   0.64073083 -0.00304543  0.49179104
   0.34220784  0.51026855  0.15429696
   0.43211634  0.45030675  0.10038464
   0.42968536  0.57343353  0.10370364
   0.43054713  0.38470896  0.26605457
   0.49525332  0.44821009  0.34079772
   0.54380119  0.39952567  0.23816219
   0.53344052  0.57305700  0.31494798
   1.02090937  0.22953753  0.23944919
   0.93088240  0.17376159  0.29398576
   0.01731076  0.22202034  0.35926966
   0.02091033  0.40603980  0.26776841
   0.00980978  0.39681942  0.38493932
   0.92494645  0.44266769  0.31472937
   0.81361510  0.38864809  0.28913471
   0.66233962  0.89724862  0.94441091
   0.67398371 -0.00171893  0.88294269
   0.71626571  0.89217910  0.84202810
   0.50265042  0.92615369  0.72694386
   0.57623001  0.83781197  0.72277738
   0.61764656  0.94751139  0.71685163
   0.44155719  0.88406192  0.85222595
   0.16716571  0.30243266  0.17353045
   0.21051170  0.42071176  0.14388646
   0.22792056  0.32338222  0.07028978
   0.01885381  0.25879616  0.08495120