unknown system                          
           1
    15.000000    0.000000    0.000000
     0.000000   15.000000    0.000000
     0.000000    0.000000   15.000000
   C    Co   H    N    O 
    97     1   193    18    17
Direct configuration=    50
   0.68846661  0.71087617  0.59378060
   0.62476409  0.82582484  0.50209485
   0.75694178  0.86382350  0.59056138
   0.37176246  0.11508538  0.01219737
   0.20806444  0.07538105  0.03555827
   0.31670684  0.96772694  0.06124067
   0.07412572  0.01380454  0.38399268
   0.15849706  0.86447526  0.38433175
   0.01235477  0.88505140  0.30757297
   0.50020372  0.91201027  0.87784426
   0.62712543  0.97035176  0.79744301
   0.59852850  0.80884671  0.79011503
   1.00718250  0.03899726  0.66361300
   0.86579772  0.08728038  0.59141533
   0.91863715  0.15231577  0.73599548
   0.58567382  0.43770319  0.28357482
   0.71613730  0.53151196  0.33167534
   0.61748555  0.58038886  0.21080273
   0.88270976  0.70516108  0.47276650
   0.95933840  0.68518027  0.61501039
   0.04228892  0.67495125  0.47527331
   0.90483792  0.39125407  0.91673341
   0.92858464  0.24136002  0.97882263
   0.94070390  0.38383451  0.07176278
   0.88010744  0.28612499  0.30747382
   0.85077224  0.12287929  0.28226999
   0.78042288  0.19934972  0.40938421
   0.97004011  0.31967219  0.57382040
   0.10789919  0.35835787  0.48839328
   0.96575379  0.45335433  0.48355185
   0.86046719 -0.00278548  0.91103687
   0.86488381  0.87996277  0.03015917
   0.99386916  0.97839049  0.99517123
   0.33402311  0.19240817  0.53633248
   0.19089773  0.56183928  0.75912534
   0.33764636  0.28218175  0.50718824
   0.24648053  0.55968916  0.68410071
   0.38357071  0.29593093  0.42416134
   0.27928329  0.64607491  0.65340547
   0.41992619  0.13694919  0.40172046
   0.19576965  0.72931551  0.76297132
   0.31351347  0.16495184  0.63342031
   0.16358124  0.47531214  0.80168792
   0.37318290  0.12523024  0.48049407
   0.16804146  0.64377837  0.79781334
   0.42496571  0.22479573  0.37216532
   0.25662400  0.72542252  0.69452792
   0.45167739  0.05873098  0.34022372
   0.16657680  0.81691546  0.81701757
   0.38374844  0.38387496  0.38730593
   0.33719933  0.65564243  0.57791234
   0.37412543  0.54077363  0.37265828
   0.41271884  0.60573156  0.44582517
   0.39302956  0.18312643  0.69749391
   0.29708279  0.06254703  0.63845323
   0.22946998  0.21078354  0.67063377
   0.25033835  0.42804968  0.83283680
   0.11007487  0.48504482  0.88327854
   0.11168240  0.41171872  0.73579435
   0.37150445  0.03212260  0.28302020
   0.52712888  0.09216299  0.27524437
   0.48299211  0.97253005  0.39096226
   0.24478450  0.89112666  0.81891056
   0.14271482  0.79116822  0.91456913
   0.08690083  0.85882020  0.77010566
   0.29071904  0.57787111  0.32241968
   0.42126178  0.70053214  0.40464908
   0.30101375  0.67513540  0.29571940
   0.33720053  0.73747159  0.36940397
   0.18825357  0.35076426  0.07877112
   0.24241125  0.28169187  0.21702873
   0.34693589  0.33277037  0.10272342
   0.02109892  0.68330984  0.10390577
   0.91006193  0.62830113  0.21819397
   0.06948967  0.58213769  0.21840221
   0.60235247  0.48951972  0.84869674
   0.47503147  0.56188752  0.92995226
   0.64246461  0.60014420  0.95896252
   0.56856551  0.45567913  0.00317715
   0.64226204  0.38915072  0.01981326
   0.53423674  0.42889995  0.80744769
   0.44751256  0.64210825  0.99016533
   0.73922420  0.57201509  0.96287778
   0.34179847  0.64918028  0.98356015
   0.46885617  0.46534694  0.73410115
   0.60211693  0.30978802  0.07162007
   0.79531518  0.65805387  0.94978849
   0.67018871  0.26350843  0.13102958
   0.51245473  0.53038594  0.67135764
   0.28241891  0.58496123  0.03885344
   0.81983709  0.67208075  0.85656152
   0.65901524  0.87592626  0.25012576
   0.55597122  0.81223646  0.13395396
   0.64441164  0.95002498  0.10698710
   0.64273614  0.22919969  0.78478792
   0.62878888  0.22274553  0.62163929
   0.72714686  0.32592645  0.69417508
   0.32043512  0.47805525  0.53552353
   0.75382893  0.68631992  0.60917822
   0.66153851  0.66875289  0.54143609
   0.64919254  0.70516743  0.65466880
   0.60576008  0.76659587  0.46497658
   0.64854873  0.88011750  0.45873874
   0.56723977  0.84720779  0.53887457
   0.75354593  0.92588807  0.54335161
   0.36141947  0.18260523  0.03644618
   0.37484504  0.11786213  0.93852230
   0.43741182  0.09272003  1.03968058
   0.18754751  0.09375941  0.96669143
   0.18517578  0.13286746  0.08028655
   0.16985114  0.01828483  0.05535027
   0.25626164  0.92334360  0.07277626
   0.13527360  0.03796449  0.41852085
   1.01114750  0.01843506  0.41818769
   0.07219375  0.05582317  0.32362636
   0.22208101  0.89014908  0.35217410
   0.14299827  0.79212795  0.36379813
   0.16492286  0.86848479  0.45550355
   0.02637317  0.81635318  0.28279733
   0.50750082  0.85995760  0.93183090
   0.43465621  0.91027786  0.84855091
   0.51919960  0.97567113  0.90697782
   0.62605951  0.02545323  0.84679692
   0.59348997  0.00042225  0.73791127
   0.69901324  0.95476369  0.78159506
   0.65997557  0.80819649  0.75339454
   0.05309713  0.06089518  0.60934857
   0.98627947  0.97087341  0.64112956
   0.03717242  0.03787420  0.72612006
   0.89309104  0.13593573  0.54144549
   0.79205536  0.09947068  0.60328317
   0.87725261  0.01982682  0.55893225
   0.85617966  0.19007485  0.74319928
   0.62089464  0.37434667  0.27333503
   0.52619093  0.44165173  0.23645332
   0.55831232  0.43685681  0.34977567
   0.69213858  0.55022543  0.40143038
   0.74685595  0.58946651  0.30412657
   0.75728747  0.47011943  0.33623716
   0.66316367  0.64040385  0.20703463
   0.84479174  0.64105766  0.47070488
   0.89628115  0.72156730  0.40039655
   0.84387128  0.75607439  0.50799228
   0.92044375  0.74321393  0.64051732
   0.02510199  0.67845530  0.64783860
   0.92286415  0.62680895  0.62967630
   0.09524768  0.67185437  0.52618493
   0.95841470  0.40454519  0.86560361
   0.87910486  0.45688506  0.93386729
   0.85425224  0.35239372  0.88029426
   0.97416000  0.21025908  0.02163122
   0.95914268  0.22598526  0.91193247
   0.86637197  0.20304900  0.98165405
   0.94476458  0.34359383  0.13781685
   0.83573779  0.32593544  0.26104287
   0.94910862  0.27479494  0.28162350
   0.88975122  0.32412112  0.36938848
   0.83848880  0.06232737  0.32123682
   0.92239698  0.11153359  0.26627246
   0.81086871  0.12192841  0.21794100
   0.76686574  0.12652668  0.41961763
   0.92874313  0.35398523  0.62406453
   1.01811079  0.27756136  0.61273617
   0.92711920  0.26628768  0.54139271
   0.10384310  0.29922789  0.44292731
   0.14960154  0.35002124  0.54690477
   0.13178546  0.41475329  0.44608868
   0.00569441  0.49458483  0.43857407
   0.81709343  0.90124873  0.08138047
   0.91493318  0.83609555  0.05622645
   0.82732845  0.05975676  0.93408129
   0.80810826  0.95248775  0.88920591
   0.82633683  0.84133799 -0.02214989
   0.90652014  0.00791415  0.85645401
   0.01247964  0.02926909  0.93918215
   0.35768731  0.05444566  0.50190452
   0.11420008  0.63980508  0.84350129
   0.45513435  0.24680485  0.30550392
   0.29117583  0.78409155  0.66458647
   0.39934943  0.39046207  0.31763652
   0.36556100  0.72485586  0.55759391
   0.42563154  0.52811848  0.32265704
   0.48439284  0.58242905  0.46477812
   0.41177359  0.25584913  0.70500442
   0.38442796  0.15662755  0.76393762
   0.45636223  0.16301402  0.67040400
   0.23214769  0.04738934  0.60082872
   0.35614187  0.03014814  0.61116709
   0.28290743  0.04441196  0.70800238
   0.20592142  0.17345498  0.73221577
   0.24050713  0.28059736  0.68609715
   0.17319908  0.20588614  0.62409945
   0.24252786  0.35634554  0.86002514
   0.30124562  0.42387536  0.78074841
   0.27442325  0.46860422  0.88921411
   0.09799415  0.42389926  0.91599319
   0.13904097  0.53713052  0.92532838
   0.04489619  0.51091732  0.86678668
   0.09159443  0.34790278  0.76506161
   0.04481881  0.43902673  0.71537773
   0.15054977  0.40331623  0.67608589
   0.38560889  0.99107794  0.22480125
   0.32009580  0.00448230  0.32649953
   0.34541708  0.09595212  0.25682186
   0.56290144  0.03863783  0.23919973
   0.50346298  0.13598507  0.22389989
   0.57365396  0.13490340  0.31283680
   0.49946442  0.91945475  0.34357494
   0.53729302 -0.01849646  0.43847340
   0.42800194  0.95341143  0.43489840
   0.23081706  0.94741998  0.86120204
   0.31259702  0.86790683  0.83567344
   0.24868339  0.91290258  0.75031670
   0.07886183  0.75318236  0.90813465
   0.19224911  0.74943998  0.94734456
   0.12904244  0.84831659  0.95450511
   0.06379609  0.91666190  0.80939843
   0.11028468  0.88508102  0.70087879
   0.02842715  0.81292955  0.76563789
   0.23035597  0.56692105  0.36274212
   0.28036972  0.53372307  0.26185078
   0.47484612  0.69364415  0.35245500
   0.44346562  0.74202789  0.46232851
   0.23899148  0.70403373  0.26636624
   0.35113343  0.68229077  0.23976928
   0.34655556  0.80839303  0.34752862
   0.29283093  0.74090260  0.42489926
   0.13603421  0.29740393  0.07090828
   0.21390426  0.36911781  0.01170128
   0.15178698  0.40778877  0.10695206
   0.18035981  0.23862419  0.20582248
   0.23799679  0.33176912  0.27076729
   0.29456586  0.23425066  0.23712682
   0.39441498  0.30701909  0.14804298
   0.08557155  0.70791285  0.12651490
  -0.02882350  0.74103171  0.09410710
   1.01502326  0.64601027  0.04047402
   0.05839810  0.53652841  0.27293394
   0.11510996  0.63147541  0.24573344
   0.10649895  0.55146206  0.16650988
   0.90150095  0.57148963  0.26763108
   0.50972859  0.41398653  0.98607298
   0.55036896  0.48023064  0.07032253
   0.61435674  0.54431069  0.80198662
   0.66220354  0.45192550  0.86496768
   0.43431009  0.50580153  0.94944244
   0.45878154  0.58232501  0.86014841
   0.61973499  0.64118681  0.01810679
   0.64265401  0.65296046  0.90638646
   0.47949115  0.70311297  0.96486942
   0.47166198  0.62878349  0.05820535
   0.49196594  0.39411339  0.85694921
   0.57726195  0.37723424  0.77978458
   0.69430187  0.41826523  0.06299472
   0.67187828  0.35855495  0.95789853
   0.75857242  0.52025655  0.91141643
   0.74826172  0.54350193  0.02997747
   0.56618172  0.26372223  0.02388398
   0.54679091  0.33165770  0.11998120
   0.70317699  0.31087231  0.18196268
   0.73027147  0.24103032  0.08903216
   0.63998789  0.20471032  0.16643584
   0.43429386  0.41744038  0.68965207
   0.41109674  0.50138541  0.77108686
   0.56492046  0.49929094  0.62556744
   0.54667706  0.58812903  0.69719258
   0.46495075  0.55305418  0.61946829
   0.32661225  0.64136731  0.91184566
   0.32488221  0.71782896  0.00337612
   0.28221979  0.60119271  0.11581325
   0.30909583  0.51758830  0.02835798
   0.21121650  0.59372269  0.01646541
   0.85771511  0.65217330 -0.01021979
   0.75341651  0.71245658  0.97650961
   0.76095489  0.65636783  0.81480640
   0.87370927  0.62915935  0.82758140
   0.82770185  0.74471126  0.84454279
   0.61080612  0.83913091  0.29449863
   0.67820767  0.93930022  0.27865729
   0.71667004  0.83041551  0.24860935
   0.52804383  0.78801493  0.19604048
   0.59152660  0.75489074  0.10299038
   0.50162467  0.83541462  0.08827968
   0.60184910  0.94913507  0.04137172
   0.68570853  0.25475765  0.84118879
   0.65510574  0.15337318  0.78760850
   0.57159762  0.24546660  0.79404365
   0.65937671  0.25399888  0.55993412
   0.55433410  0.22704565  0.62871233
   0.64594709  0.14621152  0.61802110
   0.74649243  0.34120558  0.62376737
   0.69741470  0.80291547  0.56325200
   0.30190687  0.05477691  0.04363465
   0.08140437  0.91693210  0.35952751
   0.57587203  0.89208106  0.81822007
   0.92328371  0.09333621  0.66856660
   0.64546229  0.51238275  0.26815554
   0.96539902  0.68893299  0.51775157
   0.92918578  0.34046238  0.99150403
   0.83504728  0.20445027  0.33142965
   0.01146213  0.38077175  0.51260178
   0.90921687  0.95277718  0.98287218
   0.35595585  0.45756135  0.42398429
   0.35745239  0.59385052  0.52045774
   0.26121020  0.32660435  0.13370226
  -0.01021674  0.62510329  0.18071792
   0.57346323  0.52908929  0.93521709
   0.62253214  0.87983333  0.16081679
   0.66758972  0.26045286  0.69915408
   0.80883287  0.85304126  0.65277644
   0.39168734  0.93023835  0.05647990
   0.94234043  0.93043920  0.29106247
   0.54556618  0.74645280  0.79931923
   0.98458491  0.16648181  0.78847838
   0.55222748  0.57944441  0.16113587
   0.05305652  0.66153076  0.39670127
   0.94543861  0.46539739  0.07743947
   0.75132474  0.26161335  0.45359545
   0.88675745  0.46843006  0.50610304
   0.04390692  0.95944374  0.05947109
   0.30624533  0.35074614  0.55535845
   0.26681308  0.48524436  0.64519944
   0.36631468  0.36461090  0.02921597
   0.85018835  0.68612500  0.20214276
   0.70245907  1.00723186  0.12339963
   0.75987496  0.36497515  0.75770536
Direct configuration=   100
   0.67786675  0.71887563  0.61328995
   0.61304709  0.81044728  0.48997661
   0.73214427  0.86567079  0.58006930
   0.36798827  0.10982012  0.01646003
   0.20543128  0.09996982  0.02276827
   0.30607564  0.96657328  0.06218116
   0.08675600  0.01944424  0.36264331
   0.15460591  0.86818884  0.37710799
  -0.00151379  0.88722538  0.31724795
   0.48978218  0.90491414  0.86667102
   0.63748641  0.95406659  0.80111015
   0.59711491  0.80195242  0.79428212
   1.02057379  0.05609896  0.66255085
   0.87101378  0.08961793  0.59557771
   0.91741010  0.15863206  0.73425068
   0.60794597  0.44545463  0.30621778
   0.73257374  0.54426276  0.33713614
   0.62745218  0.57810489  0.21267446
   0.90185206  0.69361704  0.46140374
   0.95581964  0.67673825  0.62025274
   0.05594812  0.65972284  0.49608753
   0.88483122  0.38139592  0.90522983
   0.92909187  0.24383204  0.98958552
   0.94741765  0.38685265  0.05732266
   0.87164068  0.28148792  0.31136713
   0.85307112  0.11679095  0.26904525
   0.77613752  0.18977482  0.39871395
   0.97303413  0.32033637  0.57852893
   0.09634313  0.36768900  0.46595024
   0.95951790  0.45321659  0.48935520
   0.87131353 -0.02545621  0.90421751
   0.87993801  0.87350661  0.03996452
   0.99324204  0.98083338  1.01230438
   0.34245310  0.18606241  0.53740436
   0.19297982  0.57056747  0.76267983
   0.34498853  0.27812955  0.50739244
   0.25198274  0.57290130  0.68813460
   0.38366060  0.29651482  0.41930925
   0.28175580  0.65893198  0.65571175
   0.41127961  0.13614711  0.39523754
   0.19263913  0.73596349  0.76622989
   0.30767979  0.16327901  0.63122031
   0.16595748  0.48018794  0.80006314
   0.37902956  0.12116343  0.48270278
   0.16193820  0.65248474  0.79537099
   0.41499814  0.22758775  0.36596199
   0.25548613  0.73604155  0.69622335
   0.44315438  0.06792298  0.33243406
   0.15814663  0.82090949  0.81754437
   0.38447106  0.38311895  0.37784275
   0.34015869  0.65881925  0.57753609
   0.38033310  0.54255179  0.37695540
   0.41752584  0.60485201  0.44484085
   0.38499150  0.17851199  0.69393599
   0.27976561  0.06273652  0.63570952
   0.22755124  0.22312954  0.65898856
   0.24672710  0.42479840  0.82705702
   0.09959170  0.49005998  0.87849271
   0.11701683  0.43044258  0.72568452
   0.37495452  0.02654945  0.27191005
   0.52215921  0.10690324  0.27370474
   0.49494550  0.99518301  0.38636880
   0.23560038  0.88667532  0.81982770
   0.12294570  0.80045396  0.91538980
   0.07929473  0.85134020  0.76596328
   0.29705384  0.57312528  0.33081874
   0.42276737  0.69934093  0.40573592
   0.30624023  0.66440232  0.29205030
   0.32994454  0.72561381  0.36803657
   0.18370671  0.35444480  0.08443349
   0.23790736  0.29894768  0.23724032
   0.34091577  0.32891124  0.11798122
  -0.00559850  0.69428962  0.11314803
   0.92028412  0.63759801  0.23769954
   0.06691235  0.58224668  0.21503771
   0.59860843  0.47751536  0.84225331
   0.47949889  0.56948980  0.91834648
   0.63199124  0.59392852  0.95778821
   0.56126035  0.44795522  0.00453500
   0.64215808  0.38668600  0.01939103
   0.53544255  0.41651330  0.79374129
   0.45012361  0.62531056  0.99686625
   0.73461946  0.57541249  0.96084780
   0.35393211  0.65343912  0.98235234
   0.46911292  0.45979657  0.73357265
   0.61229681  0.30503841  0.07542148
   0.79069514  0.65718543  0.93569250
   0.68387800  0.26314689  0.13495057
   0.51753374  0.52634718  0.67300398
   0.29436455  0.59146204  0.03595534
   0.79831217  0.68278975  0.83019051
   0.70899419  0.87673043  0.22378330
   0.56855760  0.81809822  0.14421913
   0.62366531  0.96507029  0.11349685
   0.64801003  0.20755522  0.77796166
   0.64015229  0.22422349  0.61271959
   0.72630439  0.32446316  0.69551238
   0.32492755  0.47077002  0.52920907
   0.72218558  0.72387587  0.67027161
   0.70631454  0.66072116  0.57336337
   0.60770159  0.71331701  0.63796421
   0.62768893  0.76180221  0.43480267
   0.62020078  0.87917875  0.46723414
   0.54458746  0.79374983  0.51628280
   0.71846313  0.91960758  0.53323578
   0.34941463  0.18081627  0.01403622
   0.39780468  0.09003128  0.95072369
   0.41540575  0.10564572  1.06937897
   0.20525509  0.11727351  0.95131432
   0.20001477  0.16258201  0.05776579
   0.14997743  0.05519492  0.04065399
   0.24665358  0.93197670  0.08566112
   0.15816952  0.02904696  0.36213060
   1.04903128  0.04481028  0.42117269
   0.06081323  0.05437031  0.30178143
   0.21525590  0.89757674  0.34994834
   0.14577711  0.80133051  0.35600301
   0.15691035  0.87091852  0.45217062
   0.00625786  0.81371309  0.32334955
   0.44680084  0.84786520  0.86114650
   0.46924947  0.96080620  0.82035452
   0.50257989  0.92850940  0.93322990
   0.67821215 -0.02648987  0.85927613
   0.60369611  0.01485042  0.78144873
   0.68292736  0.93262294  0.74887164
   0.66560970  0.79887745  0.75995170
   0.06985319  0.10362870  0.63547207
   1.01493868  1.00287265  0.61195560
   0.03708462  0.02358835  0.72758070
   0.90064157  0.10154418  0.52942801
   0.82183923  0.13966065  0.61174628
   0.84392053  0.02345197  0.59538485
   0.85232026  0.19148740  0.72263955
   0.65592828  0.39258727  0.32513209
   0.56524575  0.41988353  0.25708625
   0.55634231  0.45802557  0.36265439
   0.70605711  0.57605004  0.39730847
   0.77917326  0.59802628  0.30994739
   0.76623979  0.48145157  0.35478701
   0.67555668  0.62954884  0.19553777
   0.84635685  0.64720591  0.46871595
   0.93022567  0.68483156  0.39649468
   0.88216654  0.76344259  0.46897567
   0.92903043  0.74066720  0.64079207
   0.01988448  0.66178210  0.65430903
   0.90941970  0.61766592  0.63904679
   0.10629384  0.63824429  0.54537362
   0.90935500  0.34797005  0.84604353
   0.91916553  0.44961663  0.89615350
   0.81419019  0.38713667  0.90285914
   0.95946578  0.21274190  0.05239738
   0.96194769  0.20890696  0.93405055
   0.85883890  0.22067892  0.98115434
   0.98293595  0.34703043  0.10850432
   0.82366940  0.32518059  0.28012874
   0.92931434  0.26756611  0.26845031
   0.90510324  0.30381680  0.37271000
   0.83892497  0.05455544  0.30176786
   0.92528297  0.10732485  0.26824647
   0.83009616  0.11962997  0.20018414
   0.73598989  0.13059400  0.40535710
   0.95457697  0.35754497  0.63825354
   1.01518788  0.26588562  0.59695699
   0.91464135  0.28594257  0.55563987
   0.09706325  0.31312720  0.41746696
   0.14127951  0.35192250  0.52203010
   0.11376326  0.42995473  0.43583245
  -0.00051956  0.49080189  0.43862736
   0.80809732  0.88792197  0.04192590
   0.90880168  0.88052155  0.10823667
   0.85778518  0.04708166  0.91303761
   0.80942715  0.93861817  0.89895066
   0.88892492  0.80626586  0.01710839
   0.90696060 -0.04137426  0.84028391
   0.01174133  0.03813545  0.97259225
   0.37130097  0.05470642  0.50553035
   0.12742751  0.64681602  0.86002084
   0.43691728  0.24650392  0.30290121
   0.28750073  0.79910548  0.66751535
   0.41870658  0.39142368  0.31186526
   0.36642454  0.71547976  0.55203984
   0.43245988  0.53346900  0.32310471
   0.48415897  0.58119469  0.45909128
   0.42297220  0.23848213  0.68661415
   0.36068942  0.17388090  0.76551059
   0.44147421  0.13079257  0.68367042
   0.23432789  0.04582571  0.58352876
   0.34061106  0.02247456  0.63715621
   0.24005696  0.05712544  0.69784327
   0.18509963  0.19302994  0.70801082
   0.25803327  0.28844477  0.68730982
   0.18762266  0.24686375  0.60329002
   0.22487921  0.36329928  0.85141628
   0.29584768  0.41076562  0.77033130
   0.28161536  0.45860218  0.88310476
   0.06948627  0.42232354  0.89605202
   0.13570843  0.51803868  0.93926882
   0.04409475  0.53656486  0.86169895
   0.08523138  0.36719967  0.74809159
   0.05928646  0.47142690  0.71160664
   0.15767338  0.41251870  0.66501465
   0.40640483  0.98579036  0.21914873
   0.33079768 -0.01640357  0.31384586
   0.33273834  0.07816674  0.24096927
   0.54886100  0.05653997  0.22648020
   0.49898169  0.16453507  0.23125515
   0.57444019  0.13996442  0.31282306
   0.52273494  0.94346356  0.34173426
   0.55000358  0.02236824  0.42757817
   0.45223413  0.97177462  0.44184776
   0.21024902  0.95438559  0.84613598
   0.28883220  0.86076927  0.86239278
   0.27067634  0.89608137  0.75627913
   0.06367953  0.76004394  0.91441294
   0.17687949  0.76453624  0.95741837
   0.10998962  0.86663496  0.94891775
   0.05070248  0.91689445  0.78547472
   0.09555653  0.85797316  0.69893256
   0.03258008  0.79576403  0.77264475
   0.23875856  0.56993121  0.37507065
   0.28562580  0.52160174  0.28131188
   0.46558855  0.69238563  0.34744140
   0.45555628  0.74325304  0.45181962
   0.24871941  0.69030865  0.25634108
   0.36062603  0.66821585  0.24409772
   0.33145555  0.79368786  0.34474778
   0.27378839  0.71986079  0.41988340
   0.12477855  0.31089060  0.08224960
   0.20921930  0.35681827  0.01560408
   0.16132204  0.42152447  0.10023908
   0.17438865  0.26529786  0.24156891
   0.24427667  0.35927618  0.27661371
   0.28935101  0.25194525  0.26118904
   0.39373508  0.31111123  0.17332486
  -0.00038989  0.76438940  0.12890279
  -0.06857545  0.67501398  0.08211723
   1.04716429  0.67240936  0.06777234
   0.03587250  0.51538932  0.20772757
   0.08650476  0.58527219  0.28724458
   0.13429343  0.59088831  0.18101205
   0.93610950  0.59495016  0.29788099
   0.49675981  0.41285997  0.99429894
   0.54694683  0.48348123  0.06829556
   0.62376252  0.53370485  0.80009539
   0.65837773  0.43875177  0.86871976
   0.42904730  0.51716300  0.90551499
   0.48407327  0.61380569  0.86154184
   0.60762190  0.61603829  0.02064959
   0.62061004  0.65349259  0.91700671
   0.49722531  0.68019456  1.00901183
   0.45541740  0.58385451  0.05751994
   0.49315362  0.36970911  0.83300477
   0.57288936  0.36830434  0.75440167
   0.69289312  0.42263511  0.05907736
   0.68233384  0.36162999  0.96412942
   0.75280607  0.52154995  0.91432506
   0.75001913  0.54478679  0.02714157
   0.59089000  0.25412078  0.02913918
   0.55844842  0.32111401  0.11919713
   0.69239708  0.30185825  0.19373630
   0.74591104  0.25997809  0.09805089
   0.66927301  0.19732902  0.15482051
   0.44292208  0.40619259  0.69006888
   0.40772761  0.48684137  0.75881164
   0.58674011  0.52034881  0.66023519
   0.50807372  0.59495855  0.69804751
   0.49568057  0.52792039  0.60318953
   0.33763526  0.64209419  0.91124251
   0.34437005  0.72630492 -0.00729948
   0.30930103  0.59276968  0.10561408
   0.31286888  0.52267991  0.01640111
   0.22585513  0.60175230  0.02331194
   0.85771668  0.64179459 -0.04470170
   0.76238065  0.71267918  0.97614450
   0.73390686  0.69589292  0.79930372
   0.82580379  0.62655536  0.79335211
   0.84634716  0.73709018  0.81654456
   0.71369082  0.80989557  0.25232022
   0.70887836  0.92375478  0.28196147
   0.77032241  0.88852193  0.18652031
   0.51618710  0.80022351  0.19346134
   0.60854061  0.75849586  0.13162761
   0.53493633  0.83509919  0.08264354
   0.55912926  0.97133648  0.07526615
   0.70091116  0.19867603  0.82648078
   0.62513658  0.13994842  0.76777656
   0.59518310  0.24654814  0.80722704
   0.68880489  0.24189412  0.56298737
   0.57257919  0.24393634  0.60202091
   0.63964985  0.15459919  0.60884278
   0.74357906  0.35200759  0.62937161
   0.67930567  0.79827984  0.56242539
   0.29250965  0.05509557  0.03693168
   0.07705865  0.92407064  0.35016752
   0.57761434  0.88330984  0.82489267
   0.93309235  0.09878690  0.66687126
   0.65509543  0.52447021  0.27994517
   0.97445444  0.67616348  0.52565677
   0.92621533  0.34024103  0.98192233
   0.82886722  0.19525835  0.32505961
   0.00874056  0.38187354  0.51171927
   0.92186197  0.93797017  0.97744240
   0.36500962  0.45752554  0.41917306
   0.35538258  0.58980534  0.52317475
   0.25303375  0.32383104  0.14314660
  -0.00214223  0.64560352  0.19288671
   0.56879951  0.51829698  0.92970760
   0.62250888  0.89278039  0.17558614
   0.67702800  0.24891674  0.69555868
   0.79001875  0.86662353  0.63997190
   0.38175317  0.93866150  0.06946028
   0.93239499  0.92793299  0.28875482
   0.55012938  0.73503936  0.81149926
   0.96120598  0.17453170  0.79958115
   0.55387598  0.57496588  0.17317895
   0.07966354  0.67446140  0.41575361
   0.93355463  0.46491259  0.07803463
   0.77783590  0.25189697  0.45701116
   0.88759221  0.47611563  0.51920924
   0.03570103  0.95129286  0.07617192
   0.31804628  0.34347592  0.55862817
   0.27680706  0.50138744  0.64671645
   0.36480995  0.35260217  0.04227249
   0.84628599  0.66572669  0.22000057
   0.68476021  1.02034904  0.10878489
   0.75317999  0.36528049  0.76222385
Direct configuration=   150
   0.67858394  0.71405029  0.60839850
   0.60969989  0.78752363  0.48057677
   0.71482294  0.87165637  0.57126936
   0.37576825  0.11120769  0.01312960
   0.20551040  0.10495424  0.01700324
   0.29433268  0.97942683  0.05833546
   0.08406987  0.02406050  0.33304386
   0.14790169  0.87337344  0.37713143
  -0.00376943  0.89158539  0.31722607
   0.47766043  0.90183100  0.85932813
   0.63451823  0.94858737  0.81793095
   0.59756053  0.80114446  0.80631305
   1.02800169  0.08299879  0.65845843
   0.87523848  0.08532771  0.59258228
   0.90802355  0.15747837  0.73262549
   0.61673279  0.45190764  0.33106188
   0.74693332  0.55556273  0.35912316
   0.63619300  0.58037134  0.23923034
   0.91998476  0.69406262  0.46990633
   0.95182668  0.65345158  0.62490001
   0.07847074  0.66775571  0.51622548
   0.87940005  0.37071008  0.91517188
   0.93033010  0.23791472  1.00246465
   0.93785397  0.39308676  0.06365636
   0.88172527  0.27747382  0.29657655
   0.83266693  0.12022566  0.25157210
   0.79693365  0.18127950  0.39845827
   0.97559153  0.32478556  0.56924880
   0.08601035  0.37086970  0.45484418
   0.95268255  0.46261838  0.49298726
   0.89049540 -0.04686117  0.89976932
   0.87722554  0.86672768  0.03221488
   0.99918003  0.97705156  1.01615143
   0.34509109  0.18952662  0.53524632
   0.19308303  0.56640478  0.76110168
   0.34951621  0.28303984  0.50451633
   0.25018237  0.56728726  0.68274040
   0.37925529  0.30049097  0.41121486
   0.28109430  0.65232976  0.65040139
   0.40919441  0.13882262  0.39077363
   0.19866026  0.73075847  0.77138300
   0.30417348  0.16579721  0.62878108
   0.15368055  0.47432196  0.79651957
   0.37167655  0.12245147  0.47667181
   0.18008685  0.64640795  0.80823056
   0.40503021  0.22608326  0.36123793
   0.25205429  0.72944280  0.69402735
   0.45329972  0.06882268  0.33108581
   0.16121392  0.81612505  0.81699659
   0.39104640  0.38654782  0.37972975
   0.32898786  0.65969435  0.56985837
   0.38555701  0.54559869  0.37102278
   0.41100107  0.61525156  0.44203736
   0.37392619  0.17695060  0.70104997
   0.26596391  0.07007664  0.63163846
   0.22331263  0.22499065  0.64838962
   0.23039635  0.41294473  0.82946110
   0.09313588  0.49138672  0.87478269
   0.09546137  0.43691696  0.72015481
   0.38105162  0.01635175  0.27912195
   0.52165775  0.10899931  0.26425954
   0.50751797  0.99666922  0.38127027
   0.21703743  0.89832587  0.82655229
   0.12505963  0.80068870  0.90988839
   0.08053830  0.85036373  0.75310275
   0.29570790  0.56932716  0.32758203
   0.41312393  0.70842236  0.40237637
   0.30198248  0.66155399  0.28435127
   0.33346378  0.73785235  0.34576252
   0.18229018  0.35893641  0.09369200
   0.21310139  0.31932288  0.24562296
   0.33706638  0.31986381  0.12918763
  -0.00822311  0.69940931  0.12370344
   0.92162530  0.62374184  0.24444387
   0.07738625  0.58288607  0.20518157
   0.59862451  0.47776534  0.83783130
   0.47761166  0.55545614  0.91737183
   0.64118189  0.58110395  0.95985360
   0.55499179  0.43331445  0.00126769
   0.63843788  0.38915277  0.03687803
   0.53199953  0.41979200  0.79424849
   0.45301811  0.62734130  0.98759829
   0.74227541  0.56313764  0.95171377
   0.35475907  0.65635919  0.99078016
   0.47540401  0.46131083  0.71873716
   0.61452135  0.30200754  0.08061424
   0.79393101  0.65381279  0.92459786
   0.70038023  0.26537254  0.12377934
   0.52036497  0.52314547  0.65387003
   0.28479398  0.59570998  0.03230096
   0.77826211  0.66740905  0.82800821
   0.72817091  0.88573097  0.19698266
   0.58035834  0.82370687  0.17946871
   0.61758134  0.97193323  0.11400525
   0.66469603  0.19715191  0.76732444
   0.63565730  0.21177685  0.60606974
   0.72742821  0.32710929  0.69114286
   0.33499214  0.47857402  0.53911511
   0.72118947  0.73462660  0.66632587
   0.72427490  0.67599248  0.56944839
   0.61840156  0.68114357  0.62924309
   0.63934778  0.74030365  0.43494904
   0.60759678  0.85200184  0.44720965
   0.54147921  0.76411541  0.49679507
   0.69617429  0.92356401  0.52308291
   0.36398049  0.17997223 -0.01234792
   0.41503617  0.07582651  0.96535556
   0.41477086  0.12289492  1.07826432
   0.18496088  0.11884072  0.94771839
   0.21590275  0.17195143  0.04656124
   0.15326890  0.06620913  0.05474216
   0.22617986  0.94746245  0.05966815
   0.14447599  0.04330410  0.29330666
   1.08861122  0.05401584  0.40151699
   0.02252428  0.04625065  0.30341465
   0.19974004  0.86989118  0.32389374
   0.12444764  0.80363372  0.38721941
   0.18014391  0.89819830  0.43782272
   0.00157156  0.81611982  0.31269088
   0.43296018  0.85754127  0.82421867
   0.46736585  0.96966513  0.84131399
   0.48233024  0.89174762  0.93389079
   0.63527378 -0.01426379  0.88128970
   0.63213773 -0.00228883  0.75931213
   0.69971998  0.91568977  0.81351310
   0.66532137  0.80133741  0.78225420
   0.06323724  0.11796250  0.60610754
   1.03226317  1.01122856  0.65428760
   0.05448753  0.09995011  0.72712010