unknown system                          
           1
    15.000000    0.000000    0.000000
     0.000000   15.000000    0.000000
     0.000000    0.000000   15.000000
   C    Co   H    Li   N    O 
    90     1   178     1    20    20
Direct configuration=    50
   0.37907795  0.86263143  0.65154268
   0.34381364  0.70858782  0.70879313
   0.25137412  0.78774087  0.59664045
   0.40936739  0.79753418  0.94182675
   0.43464480  0.94686574  0.02992686
   0.40631019  0.81225195  0.10338502
   0.97791744  0.83466694  0.92200587
   0.13546933  0.86940053  0.93766408
   0.04153549  0.83876302  0.06751893
   0.66104445  0.90488083  0.71074103
   0.71479066  0.92687424  0.86661092
   0.62078257  0.80432975  0.83228136
   0.58674787  0.51618695  0.82145619
   0.54936816  0.56346292  0.96778637
   0.42663388  0.53515612  0.86568419
   0.58872240  0.26342631  0.80567986
   0.64419484  0.26391520  0.95652240
   0.53976490  0.14470513  0.90757478
   0.82706006  0.63416381  0.90535749
   0.96546632  0.58030608  0.99175805
   0.84517804  0.47826588  0.95886543
   0.52732565  0.75592513  0.45644613
   0.47562648  0.65884294  0.32977508
   0.64142287  0.68751555  0.35087778
   0.20598060  0.53511969  0.91327917
   0.16385882  0.45572507  0.77149263
   0.12632035  0.60983018  0.79497241
   0.66732745  0.02512461  0.45063274
   0.62675895  0.17967393  0.49371882
   0.54642045  0.05098576  0.55131763
   0.56954925  0.40534677  0.31981327
   0.65914967  0.37614899  0.18170198
   0.49753721  0.39419677  0.17757322
   0.85356527  0.56787779  0.28706049
   0.93240207  0.71656314  0.27533988
   0.81284325  0.67489081  0.16995863
   0.28395010  0.14985339  0.00093678
   0.36827461  0.28266064  0.99813053
   0.41139081  0.17952761  0.10943602
   0.88191333  0.13132803  0.80254716
   0.90035837  0.29608679  0.82911363
   0.02053393  0.19645983  0.86238991
   0.02042360  0.22934332  0.36383716
   0.92253115  0.62703811  0.56171361
   0.06518099  0.31189632  0.34083606
  -0.00212788  0.60804105  0.50549754
   0.14445748  0.30992846  0.28899753
   0.05072055  0.67900545  0.47860594
   0.15208031  0.14316283  0.30599477
   0.96572212  0.78520587  0.56181330
   0.93039359  0.22717285  0.41096365
   0.85827590  0.55426661  0.59586029
   0.06721825  0.15227001  0.34346968
   0.91459246  0.71276775  0.59282027
   0.18654333  0.22399840  0.27624717
   0.03312842  0.76797416  0.50376311
   0.20404133  0.05759555  0.31083135
   0.94759677  0.88035992  0.59434355
   0.17902558  0.39185155  0.24652202
   0.12616785  0.66733709  0.42008474
   0.19993632  0.54670699  0.22897255
   0.22026204  0.60819025  0.30622251
   0.93184326  0.27031977  0.50368909
   0.89590511  0.13138946  0.40547398
   0.87069141  0.29071111  0.35879648
   0.79137011  0.59952441  0.65489721
   0.80747559  0.51617154  0.51678387
   0.90488987  0.48539562  0.65016097
   0.29442072  0.08352160  0.35499642
   0.16194082  0.99061930  0.37249524
   0.21213547  0.02021467  0.21543653
   0.93896896  0.87396922  0.70130529
   0.86188251  0.91409791  0.55113209
   0.02072453  0.94573879  0.56897199
   0.14894737  0.59004448  0.15228856
   0.25513671  0.69950662  0.27491762
   0.18913390  0.68187412  0.12419621
   0.20040728  0.74522439  0.20148917
   0.89064251  0.27965615  0.08592916
   0.00868138  0.16299050  0.09508391
   0.05011350  0.32504713  0.07851176
   0.69954933  0.05226215  0.13359350
   0.83040290  0.97041159  0.10406596
   0.73505166  0.91747049  0.22612219
   0.40856250  0.43714434  0.53011412
   0.33211650  0.33362444  0.41117912
   0.42107384  0.27484660  0.53297638
   0.25907368  0.25539617  0.70224346
   0.23433847  0.11739046  0.60871451
   0.15979772  0.25428653  0.57361538
   0.08274322  0.50006164  0.36805882
   0.36021105  0.90349042  0.59400713
   0.45182284  0.85152960  0.64116190
   0.37538429  0.89593857  0.71786354
   0.41108802  0.68224440  0.69429710
   0.29357187  0.65999561  0.69119576
   0.33509092  0.72779799  0.77806898
   0.20199575  0.72922666  0.59823987
   0.34849590  0.75718020  0.93855596
   0.47031607  0.75992607  0.93214859
   0.40930646  0.84658166  0.88648283
   0.50622231  0.95509696  1.05109834
   0.39087703  0.97661902  0.08052222
   0.42439666  0.97637380  0.96402328
   0.40346335  0.86612424  0.15989365
   0.92919803  0.88641322  0.94095279
   0.94756493  0.76762017  0.92573415
   0.00246454  0.84863302  0.85517825
   0.11465164  0.91518877  0.88277568
   0.17202197  0.80886229  0.91739532
   0.17571892  0.90525725  0.98525279
   0.09518243  0.86388197  0.11153468
   0.65029545  0.97687051  0.70439285
   0.60038216  0.87355901  0.67792323
   0.72019799  0.89825314  0.67114022
   0.76992449  0.96228235  0.83313586
   0.74151050  0.87767184  0.91652585
   0.67473069  0.97867736  0.89561929
   0.63871140  0.78950379  0.90237832
   0.63400147  0.47672299  0.86550795
   0.61569474  0.58010990  0.80175439
   0.56692824  0.48273589  0.76103233
   0.58784926  0.51238482  0.00488322
   0.50074502  0.59043040  0.01612514
   0.59771225  0.61705570  0.95875220
   0.39087219  0.56056829  0.92562839
   0.58342798  0.22347285  0.74144426
   0.64778916  0.30844307  0.79977163
   0.53203807  0.30928983  0.81863522
   0.71187296  0.28394056  0.93492220
   0.65059035  0.22098597  0.01830362
   0.60063532  0.32390320  0.97370723
   0.54087843  0.12240664  0.98032949
   0.81807416  0.69357221  0.94723917
   0.75901447  0.61121407  0.88343847
   0.86537565  0.64758123  0.84415949
   0.95912299  0.63545215  0.04036877
   0.00958218  0.59110311  0.93452631
   0.98912779  0.52309760  0.03445006
   0.89248784  0.43332325  0.99457778
   0.58680552  0.79609425  0.47013682
   0.51136045  0.72009902  0.52014218
   0.46827023  0.79420136  0.43505772
   0.47602921  0.59103182  0.30140324
   0.45458343  0.70115693  0.26961538
   0.41798734  0.66295513  0.37830574
   0.64490006  0.65643010  0.28298921
   0.17986746  0.48131943  0.95979127
   0.19553660  0.60145611  0.94441371
   0.28123215  0.53028196  0.90771994
   0.15140906  0.39964629  0.81778713
   0.23198597  0.44970862  0.75022919
   0.11292647  0.45167775  0.72007595
   0.10088939  0.60008681  0.72282466
   0.73805544  0.04103072  0.45743961
   0.64540112  1.02524500  0.37944647
   0.65161476  0.95670876  0.47725768
   0.58817585  0.20564576  0.54822505
   0.59510563  0.20140137  0.43321856
   0.69476988  0.20368102  0.49380971
   0.50484792  0.10427394  0.59070489
   0.55394475  0.33724124  0.34818378
   0.50927165  0.44072805  0.33371243
   0.63486534  0.43492045  0.34190525
   0.70601779  0.43292609  0.18656878
   0.63983454  0.36772533  0.11131544
   0.68806382  0.31469274  0.21149026
   0.50688856  0.37457583  0.10240402
   0.83534390  0.59104082  0.35423970
   0.91887298  0.52606386  0.28198055
   0.79574168  0.52968090  0.26118788
   0.92451980  0.78028104  0.24432918
  -0.00208968  0.69222445  0.26268239
   0.91441460  0.72242507  0.34615186
   0.81078260  0.74695685  0.14755090
   0.26683285  0.09593703  0.04638077
   0.28096293  0.12182054  0.93469963
   0.22344823  0.19288467  0.00588653
   0.32861300  0.32981692  1.03524106
   0.35851420  0.28665320  0.93014667
   0.43548298  0.30504641  0.00774934
   0.46443400  0.23532592  0.12097784
   0.94349010  0.33953740  0.87024100
   0.83017191  0.29224029  0.84745138
   0.91249194  0.06953795  0.82262979
   0.88070928  0.12582187  0.72821748
   0.90473532  0.31810336  0.75915594
   0.81259081  0.13511001  0.82362668
   0.04258445  0.12465209  0.87260771
   0.03069935  0.09610610  0.36586863
   0.86604133  0.73603256  0.63801071
   0.25535595  0.22536364  0.24360438
   0.07069116  0.81961372  0.46890841
   0.23619353  0.38706707  0.20005656
   0.17294762  0.72378761  0.42401139
   0.26385286  0.52100679  0.20249236
   0.27787751  0.57653513  0.34638770
   0.94974149  0.33779324  0.49146903
   0.86561331  0.27111660  0.53590331
   0.97973351  0.23926693  0.55001710
   0.90528544  0.10579196  0.33519324
   0.92592917  0.07553537  0.44539743
   0.82479078  0.12999080  0.42220197
   0.80499551  0.28857039  0.38350688
   0.89391356  0.36099032  0.36154794
   0.86995419  0.27495404  0.28394635
   0.74799951  0.55462675  0.69207013
   0.82226825  0.64152470  0.70867681
   0.75232342  0.64488820  0.61679164
   0.77213253  0.57481165  0.48471912
   0.84479155  0.47561183  0.46930498
   0.75491096  0.46898879  0.53973614
   0.94063962  0.43779026  0.60534189
   0.95930639  0.51708387  0.68891450
   0.85858785  0.44179155  0.68572572
   0.33263422  0.01668910  0.36085690
   0.33715549  0.13052189  0.31794942
   0.28556449  0.11094796  0.42209918
   0.20387269  0.93069510  0.37579821
   0.15179033  0.00424092  0.44132925
   0.09853251  0.97665128  0.34230744
   0.14942006 -0.00180711  0.18504429
   0.24954856  0.06630837  0.17372297
   0.25328943  0.96007770  0.21496071
   0.91438293  0.93741080  0.72241050
   0.89431665  0.81815186  0.72283984
   0.00969667  0.86223989  0.72567427
   0.87647172  0.92395750  0.47877999
   0.80092250  0.87260524  0.56160351
   0.84376341  0.98204285  0.58182257
   1.00943067  0.01067846  0.60534164
   0.08504385  0.92223070  0.59248552
   0.02317266  0.95685813  0.49720508
   0.07833104  0.59779441  0.17019368
   0.14841902  0.53810039  0.09668317
   0.32152129  0.68839126  0.24651657
   0.27106802  0.74458768  0.33083454
   0.15323654  0.71766627  0.06914657
   0.25594884  0.67330114  0.09505579
   0.23022700  0.81014955  0.18850367
   0.13247968  0.76281356  0.22902106
   0.85617318  0.27110588  0.15054607
   0.86684610  0.23178626  0.03587939
   0.87943783  0.34979425  0.06263579
   0.95310145  0.12922249  0.12462500
   0.07096075  0.15620399  0.12720023
   0.01243338  0.14192356  0.02430862
   0.12036894  0.30859068  0.08779626
   0.73521481  0.09328684  0.08451189
   0.66477276  0.08495503  0.19054235
   0.64538244  0.01818291  0.09591268
   0.80196727  0.89062594  0.25269921
   0.69924273  0.86015817  0.19167109
   0.69807090  0.94421052  0.28404946
   0.86495498  0.90893159  0.12685552
   0.34902718  0.46760632  0.55918548
   0.42409242  0.48496083  0.47725927
   0.46174825  0.43457058  0.58236613
   0.32620700  0.25998947  0.40296250
   0.37432343  0.35616784  0.35618976
   0.26793164  0.36905358  0.42069445
   0.41020820  0.21668595  0.48982875
   0.29423865  0.21168118  0.75295513
   0.21181123  0.30110291  0.73363278
   0.31369011  0.29659984  0.67037370
   0.30624488  0.10453726  0.61331511
   0.21340719  0.10383984  0.53863051
   0.20132940  0.06282338  0.64915448
   0.13646865  0.21645315  0.51560890
   0.07855499  0.41027733  0.50717600
   0.32579838  0.78059885  0.64845736
   0.41293657  0.85057891  0.02497755
   0.05168217  0.84246777  0.97855270
   0.66261580  0.87696919  0.80267275
   0.51625637  0.53180576  0.88477446
   0.59956497  0.20896717  0.88602672
   0.87594001  0.56324988  0.95463297
   0.55272380  0.69159510  0.38199558
   0.15931406  0.53416362  0.82871477
   0.61758020  0.08206806  0.50631314
   0.57332647  0.39794040  0.22317068
   0.87037057  0.65550785  0.23689131
   0.36482678  0.19346746  0.03168922
   0.93232348  0.20717399  0.83817039
   0.14816890  0.47250743  0.26877850
   0.14182284  0.60019543  0.36801735
   0.99012193  0.25934737  0.09769077
   0.76529511  0.98838893  0.16166238
   0.38902759  0.34659730  0.49417506
   0.21464457  0.21018448  0.63119692
   0.23927055  0.84969847  0.54161285
   0.40464798  0.73299681  0.12145800
   0.97429506  0.81318847  0.10428552
   0.56765401  0.76067470  0.78978598
   0.39492613  0.51273237  0.79006748
   0.49013627  0.10562525  0.85991816
   0.77828035  0.44585277  0.92044483
   0.70882824  0.71404005  0.39211039
   0.11943306  0.68325687  0.83410839
   0.51843731  0.97232269  0.55478162
   0.41964322  0.39287399  0.20398726
   0.75246166  0.62549004  0.13962399
   0.40464186  0.11325419  0.15413154
   0.07253611  0.25912900  0.87076531
   0.03041757  0.38513733  0.37878700
   0.01486089  0.52368378  0.47530195
   0.03263513  0.40055687  0.05384141
   0.85530515  0.01674923  0.03794823
   0.45974598  0.26663146  0.60579050
   0.13679963  0.33336827  0.58803813
Direct configuration=   100
   0.38318177  0.86750050  0.65662656
   0.35900052  0.71472854  0.70477979
   0.26124351  0.77644162  0.59004351
   0.41094469  0.78792041  0.96124675
   0.43466861  0.94166726  0.00907414
   0.41554231  0.81614201  0.11413699
   0.97986171  0.86164239  0.92105558
   0.14544602  0.88330303  0.94378706
   0.04910306  0.84044662  0.06144350
   0.64078986  0.89628199  0.71681091
   0.70728973  0.93426992  0.85820285
   0.63217352  0.79086869  0.83806111
   0.57910188  0.51069114  0.81067452
   0.55025970  0.56727288  0.96644108
   0.42960504  0.53686430  0.86936167
   0.58218020  0.24967517  0.78832178
   0.63890238  0.26204044  0.94694332
   0.54178942  0.13954742  0.89631754
   0.81934422  0.62724160  0.91297328
   0.95096846  0.60215381  1.00853202
   0.84400764  0.48138390  0.97404733
   0.52463089  0.74217860  0.47034710
   0.48431743  0.66621781  0.31831888
   0.63204867  0.69517194  0.36405941
   0.19230977  0.51323033  0.91999987
   0.15772473  0.44882415  0.77161978
   0.13728435  0.61009994  0.80277741
   0.66612672  0.02213984  0.44554784
   0.65211148  0.18304175  0.50057021
   0.54928751  0.06282658  0.55647439
   0.57829118  0.39395047  0.31572301
   0.65450153  0.38461012  0.16491574
   0.48972765  0.40761106  0.17873062
   0.85435557  0.55950257  0.27735844
   0.91644072  0.70904552  0.28158591
   0.80836416  0.66749497  0.16308861
   0.29578658  0.15254022 -0.00544294
   0.35661071  0.30443930  0.98507391
   0.41585220  0.19653827  0.09170827
   0.89828473  0.13449130  0.77394830
   0.89770528  0.29729098  0.81579601
   0.02646208  0.20127828  0.84465157
   0.01795951  0.23210914  0.36682114
   0.91364975  0.62365800  0.55625314
   0.06688083  0.31324354  0.35297961
  -0.00562411  0.60301017  0.50170612
   0.14452885  0.30954254  0.29725173
   0.05625825  0.67280402  0.48158375
   0.15422212  0.14924702  0.31249286
   0.96613051  0.78008241  0.56200755
   0.92013753  0.22853846  0.40755016
   0.84824247  0.55164953  0.58979001
   0.06391882  0.15227779  0.35339124
   0.90337559  0.71142630  0.57937954
   0.18650728  0.22776527  0.27764731
   0.04372129  0.76071895  0.51816960
   0.21215803  0.06299318  0.30266049
   0.94945437  0.87610127  0.59818554
   0.18678059  0.38624840  0.25911332
   0.12841954  0.66966521  0.41755565
   0.20387198  0.54559281  0.23070946
   0.22603070  0.60472417  0.30821002
   0.92867285  0.25887079  0.50787684
   0.88033516  0.13256353  0.41270509
   0.85569335  0.28589185  0.35396680
   0.77696542  0.58042037  0.65570595
   0.80059864  0.50708288  0.51226120
   0.89866759  0.47400179  0.63938008
   0.31041078  0.07922891  0.33186644
   0.17601943  0.98755075  0.35802641
   0.21968183  0.03016380  0.20719772
   0.93541293  0.86594953  0.69755540
   0.86025947  0.90821016  0.55897031
   0.03055268  0.93745665  0.58600633
   0.14470350  0.58925423  0.16351006
   0.25439204  0.69796092  0.27623174
   0.19316676  0.66698334  0.12835434
   0.19486229  0.73721142  0.20081271
   0.88413027  0.26304104  0.08708556
   0.00916658  0.14990181  0.10760218
   0.04293203  0.30795311  0.09054120
   0.70075727  0.07064205  0.14221514
   0.83484184  0.97511286  0.10876932
   0.72647948  0.92471910  0.22933618
   0.38849232  0.43322718  0.54762674
   0.34079209  0.35303007  0.41056813
   0.42278034  0.26933317  0.53562977
   0.25081728  0.26761231  0.70264205
   0.24687884  0.12631519  0.61923674
   0.16030317  0.25653857  0.56546651
   0.08800986  0.50061975  0.36489181
   0.37140621  0.91683519  0.60750439
   0.45556383  0.84513878  0.64437927
   0.38027941  0.89383154  0.72442037
   0.42137473  0.68526287  0.67728897
   0.31010601  0.65985220  0.71107009
   0.37336549  0.74699750  0.77072501
   0.23397757  0.71000840  0.59215355
   0.37952752  0.72949735  0.99300839
   0.47714832  0.76498301  0.93204789
   0.37374665  0.81433076  0.90528851
   0.46319060  0.97389032  1.06755225
   0.36938530  0.97243426 -0.00243661
   0.47121308  0.94600784  0.94458789
   0.42439891  0.86303798  0.16731046
   0.92130847  0.87496909  0.96289273
   0.96969785  0.79226594  0.89784394
  -0.01622241  0.90743783  0.86462059
   0.13684242  0.93103313  0.88987450
   0.17465768  0.81960293  0.92226378
   0.19063281  0.91182445  0.99594159
   0.10532359  0.83515843  0.10580352
   0.59027275  0.95078994  0.71730631
   0.61744693  0.84428208  0.67444252
   0.70210052  0.93064151  0.68659268
   0.76228572  0.96501114  0.81896546
   0.72915867  0.90645902  0.91961692
   0.65547558  0.98718790  0.87256593
   0.65061985  0.77317512  0.90896397
   0.62938808  0.46813956  0.83559932
   0.60617428  0.57343589  0.78192447
   0.53552570  0.48363487  0.75474566
   0.61386386  0.53563023 -0.01313973
   0.50525926  0.55171942  0.02287333
   0.57037150  0.63833384  0.96811980
   0.39704492  0.55652384  0.93816749
   0.56890747  0.19380070  0.74776616
   0.64547168  0.28003107  0.76679613
   0.52137123  0.29032091  0.77491763
   0.69345023  0.29722465  0.91774111
   0.66165186  0.21440222 -0.00315833
   0.59757788  0.31005669  0.97754733
   0.55529847  0.10150866  0.95819078
   0.79819686  0.68461196  0.95461477
   0.75794088  0.59312935  0.89094546
   0.85461392  0.64551816  0.85295279
   0.92972929  0.65269493  0.05676951
  -0.00451890  0.63297639  0.95928508
   0.98741553  0.54290611  0.03457293
   0.89220378  0.44473935  1.01750610
   0.58521789  0.77087480  0.49972924
   0.50282461  0.68555685  0.51060163
   0.46625800  0.78874390  0.46999915
   0.50201238  0.59554079  0.31907058
   0.48986271  0.68313128  0.24906038
   0.41534274  0.66847705  0.33400595
   0.64177541  0.65584148  0.30177160
   0.13533819  0.50750169  0.96253562
   0.24503070  0.56308305  0.94058514
   0.22358810  0.44964845  0.92155294
   0.10206627  0.40633393  0.79507992
   0.22307431  0.41369539  0.77430741
   0.14431662  0.47367725  0.70381389
   0.10908556  0.60950583  0.73401124
   0.72278679 -0.00751601  0.48063780
   0.69242652  1.05493557  0.38567160
   0.61648263  0.97226562  0.42892976
   0.61156823  0.23019796  0.53906423
   0.66579826  0.20284584  0.42851627
   0.72073156  0.18056812  0.53213342
   0.52250016  0.11721132  0.59464170
   0.61998276  0.33688892  0.33779575
   0.51207797  0.38794010  0.34133556
   0.61558897  0.45328947  0.33803876
   0.70913502  0.41510914  0.20497542
   0.65124804  0.42446744  0.10427528
   0.66382124  0.31124620  0.15548818
   0.49405179  0.42701928  0.10998784
   0.85905810  0.57013772  0.35277992
   0.90057730  0.51913272  0.24512860
   0.78768237  0.53253480  0.26138676
   0.92944756  0.75931909  0.22863625
  -0.02145957  0.66939741  0.29968672
   0.88701053  0.73941740  0.34393687
   0.83380790  0.72556075  0.12776912
   0.29713571  0.08663864  0.02716909
   0.32068200  0.13671606  0.92436378
   0.22682243  0.17214448 -0.01733306
   0.32544624  0.35825112  1.02920969
   0.31710878  0.29882950  0.92101627
   0.42581063  0.32424298 -0.03834161
   0.46333606  0.25075852  0.10890456
   0.86694701  0.30942108  0.88049730
   0.84946087  0.29921589  0.75937854
   0.94183933  0.09019649  0.73460735
   0.84585623  0.15733246  0.72790001
   0.95336025  0.34370864  0.80172745
   0.85842341  0.09325189  0.82232865
   0.05553500  0.13651445  0.82882078
   0.02684905  0.09187491  0.37611526
   0.84691892  0.73297515  0.62284892
   0.24552864  0.23052062  0.23724673
   0.09973814  0.80373472  0.51061683
   0.23611710  0.37375178  0.20598321
   0.16880268  0.72986837  0.41809148
   0.26688834  0.52773480  0.19769323
   0.28045991  0.57089152  0.34477020
   0.93434565  0.33467750  0.51419571
   0.86522744  0.24237592  0.54234337
   0.97570737  0.21920960  0.54546417
   0.87196400  0.09615128  0.35073228
   0.92339699  0.08623533  0.44674507
   0.81931130  0.13196691  0.45042801
   0.78527700  0.28702838  0.38242497
   0.87683224  0.35660006  0.34079078
   0.85271387  0.25554099  0.28989158
   0.73462924  0.52306730  0.67461252
   0.80520535  0.60700922  0.71675795
   0.73060875  0.63467344  0.62884682
   0.75837943  0.55320013  0.47908246
   0.85357091  0.47788673  0.47038703
   0.76020311  0.44775291  0.52954719
   0.96510031  0.45558079  0.62093066
   0.90726480  0.49645941  0.70756199
   0.86086345  0.41032878  0.62901498
   0.34780299  0.02033482  0.33856258
   0.34493643  0.11813852  0.27893802
   0.31490616  0.12073602  0.39251601
   0.22183793  0.93127606  0.36463664
   0.16890982  0.00966711  0.43018216
   0.10638562  0.96525282  0.33729988
   0.15334052 -0.00259308  0.19615403
   0.22723643  0.08513776  0.15884508
   0.26472868  0.97392388  0.18976707
   0.93960528  0.93451887  0.72975250
   0.87200687  0.83844919  0.70881509
  -0.01079323  0.82337204  0.72385516
   0.86647949  0.92199465  0.48758012
   0.80671989  0.85990751  0.56929704
   0.83795193  0.96810650  0.59126083
   1.01353208  0.00412491  0.61232516
   0.09294674  0.91560763  0.62064524
   0.04390322  0.94799805  0.51519278
   0.08084022  0.61588450  0.18790988
   0.13605325  0.53968755  0.10998831
   0.32158105  0.70297520  0.24879019
   0.25638093  0.74759237  0.33214155
   0.15651612  0.69028588  0.07104269
   0.26314739  0.65503538  0.10692368
   0.23109810  0.80140967  0.19015113
   0.12904595  0.75947397  0.22177416
   0.84640357  0.24356477  0.14713372
   0.86494049  0.22549980  0.02737204
   0.87470658  0.33433700  0.08286032
   0.99171639  0.12659855  0.17678833
   0.08318933  0.15113702  0.09383380
  -0.02744186  0.11505939  0.05520818
   0.11590397  0.28357198  0.09695272
   0.73880910  0.10084576  0.08785694
   0.69770681  0.11108148  0.20232264
   0.63346374  0.05548825  0.11710871
   0.77258221  0.87271414  0.24395781
   0.66795920  0.89717038  0.19997564
   0.71054076  0.95807771  0.28934189
   0.87275586  0.92204782  0.14230829
   0.32156557  0.45095894  0.57850737
   0.41410563  0.48522201  0.50158169
   0.43156866  0.42721792  0.60962774
   0.33524431  0.28674227  0.38180676
   0.37412057  0.40342441  0.36789520
   0.27424668  0.37585923  0.42797098
   0.41133852  0.20520234  0.49834477
   0.29254655  0.22254210  0.73639659
   0.19384922  0.28320869  0.75038810
   0.29368227  0.32490625  0.68902392
   0.31973484  0.12692472  0.60263937
   0.21229388  0.07988254  0.57731732
   0.24061937  0.09715031  0.68425679
   0.12876516  0.21159093  0.51251920
   0.04900125  0.40925302  0.51041763
   0.32704495  0.78750813  0.65050862
   0.41899711  0.84970332  0.03231879
   0.05712123  0.86573806  0.97767161
   0.66981713  0.86412786  0.80254560
   0.52157133  0.53515969  0.88339420
   0.58579087  0.21473326  0.88092135
   0.87136932  0.56614806  0.96433211
   0.54379867  0.71802984  0.37731604
   0.16795764  0.52852710  0.82828094
   0.61636297  0.09041048  0.50107580
   0.56927464  0.39468850  0.21764599
   0.85480465  0.64931055  0.23984157
   0.35430876  0.22155025  0.03375150
   0.94111385  0.21067308  0.81457574
   0.15899777  0.46846496  0.27332206
   0.14953586  0.59946192  0.36914806
   0.98133951  0.24412994  0.09976536
   0.76295370  0.99449989  0.16161879
   0.39141384  0.34518778  0.49432805
   0.21631515  0.22012826  0.62443622
   0.22411991  0.83366230  0.54400857
   0.40329501  0.73429693  0.12606977
   0.97670671  0.81809266  0.09561898
   0.58260436  0.74068488  0.79501835
   0.39591699  0.51786549  0.79490267
   0.48179994  0.10902949  0.84482659
   0.77437647  0.44689081  0.94328612
   0.69635355  0.71355718  0.41237899
   0.13757855  0.67822087  0.84823145
   0.52399651  0.98751403  0.56618129
   0.41565850  0.41575462  0.21491134
   0.75189335  0.61897932  0.12339411
   0.41254657  0.12344535  0.12919677
   0.07080157  0.25930276  0.88420425
   0.03436587  0.38739490  0.39085956
   0.00562428  0.52178409  0.46501736
   0.03643024  0.38890170  0.07542465
   0.84792098  0.00843297  0.03507443
   0.46273459  0.26952918  0.60801671
   0.14282896  0.33743453  0.56402487
Direct configuration=   150
   0.37586831  0.87253139  0.65479113
   0.37430495  0.70900765  0.70210594
   0.26560337  0.77387610  0.59934629
   0.40198747  0.77784024  0.95106129
   0.43459569  0.93238704 -0.00053600
   0.42969575  0.81904288  0.11391248
   0.99181366  0.88949352  0.91374493
   0.15167535  0.89540489  0.94478914
   0.05065113  0.85548294  0.06759431
   0.62369273  0.88759427  0.71449983
   0.70889113  0.92878044  0.85678837
   0.64749119  0.78217188  0.84192038
   0.57898994  0.51549583  0.80581391
   0.56239326  0.56975993  0.95825988
   0.42989138  0.53694846  0.87207145
   0.57089204  0.25120434  0.77413573
   0.62908784  0.26077399  0.93201915
   0.52658538  0.14509342  0.88614347
   0.80800707  0.63098162  0.92008295
   0.94248253  0.61611064  1.00957577
   0.84207832  0.48716776  0.98904082
   0.51006852  0.73023750  0.47050678
   0.48557117  0.67591588  0.32577168
   0.64023428  0.71353792  0.37657124
   0.17297972  0.50285886  0.92799649
   0.15476360  0.45987244  0.76979937
   0.15001319  0.61922322  0.81365404
   0.65043597  0.02575300  0.44532117
   0.67231653  0.18299483  0.51345827
   0.55579456  0.07829734  0.56317199
   0.58632656  0.37790948  0.30689622
   0.65183684  0.39727020  0.15150850
   0.48998347  0.43120187  0.18138765
   0.84695584  0.54401453  0.26532696
   0.89793448  0.70779135  0.28734034
   0.79618943  0.66205916  0.17018837
   0.29324171  0.16482590 -0.02611661
   0.34910004  0.32416522  0.98272255
   0.40927350  0.21808744  0.07927021
   0.91070580  0.14068945  0.74916423
   0.89985323  0.29059914  0.81330884
   0.03581753  0.20315131  0.83081807
   0.02461417  0.21422078  0.37238514
   0.91203723  0.62088957  0.54904737
   0.06313030  0.29671590  0.34593371
  -0.00952561  0.60306435  0.49469154
   0.14310827  0.29528566  0.29092833
   0.04942003  0.67778663  0.48262601
   0.15862745  0.13649908  0.31589501
   0.95181717  0.77766386  0.57564381
   0.92851749  0.21773301  0.41124236
   0.85183193  0.54254026  0.57790949
   0.07499000  0.13856267  0.35852508
   0.89786707  0.70213922  0.58972002
   0.18580801  0.21430169  0.27926175
   0.02840612  0.76248028  0.52275852
   0.21175556  0.05469541  0.29948198
   0.93647612  0.87424227  0.61236774
   0.18404669  0.38094407  0.25929292
   0.13194473  0.67555206  0.43167877
   0.21221512  0.53699900  0.24782730
   0.22550461  0.61146141  0.31766871
   0.91729075  0.25366246  0.50879412
   0.89014692  0.12566100  0.40752492
   0.86713140  0.27982828  0.35063327
   0.76898080  0.57295534  0.63565120
   0.80667446  0.49885633  0.49404348
   0.90492173  0.47696433  0.63727120
   0.31034028  0.07863192  0.32120976
   0.18772684  0.97059620  0.35229844
   0.20663559  0.03540631  0.19874753
   0.92393074  0.86684252  0.71340084
   0.86202983  0.92004322  0.56111037
   0.01686215  0.93431402  0.59657832
   0.15181239  0.57016663  0.17076966
   0.25598933  0.69550178  0.27290649
   0.16988295  0.66206247  0.13055255
   0.19610759  0.73278117  0.19635799
   0.88993785  0.24738671  0.09359168
   0.00936170  0.13643994  0.12361644
   0.03784355  0.29380057  0.09536878
   0.70551685  0.07969190  0.15046742
   0.81275577  0.96635598  0.09378554
   0.72665808  0.93729800  0.23802660
   0.37592471  0.43350356  0.56876257
   0.33961733  0.36187743  0.41981352
   0.43016243  0.28635080  0.52978101
   0.24613473  0.26956475  0.69787511
   0.24782724  0.12478585  0.61404855
   0.17937015  0.26053757  0.55351724
   0.08594372  0.49829340  0.36927710
   0.33427802  0.91739816  0.61143005
   0.44181500  0.87733656  0.63101320
   0.36594447  0.90336492  0.72249301
   0.44575065  0.69907581  0.68803381
   0.34590843  0.64520750  0.67693583
   0.36754447  0.71477772  0.77372304
   0.23078319  0.70740072  0.59940137
   0.41371118  0.70914891  0.97309872
   0.44978196  0.78740042  0.89885160
   0.33369428  0.79167397  0.92294592
   0.38394219  0.97463673  1.03206238
   0.43424534  0.94304345 -0.07410310
   0.50305457  0.94837384  1.01871573
   0.44116337  0.88154926  0.15324741
   0.92406542  0.87053389  0.93512438
   1.00747372  0.84452875  0.85937493
  -0.00742893  0.95729056  0.88450193
   0.17224739  0.96455913  0.92961733
   0.15910133  0.85642267  0.88212499
   0.19599560  0.86747857  0.99659595
   0.10784713  0.86396333  0.11641370
   0.55008282  0.89978814  0.71367400
   0.63829103  0.82732638  0.67340973
   0.65944871  0.94518948  0.68917846
   0.77731333  0.92360993  0.83168050
   0.70255315  0.91224955  0.92975343
   0.68069979  0.99495682  0.84980117
   0.67761599  0.77041572  0.90958717
   0.64508290  0.48878469  0.83349417
   0.60157751  0.58069672  0.77811071
   0.54663298  0.47133164  0.75855082
   0.62001237  0.53542442 -0.01458534
   0.51743542  0.57624822  0.01375400
   0.59502472  0.63304876  0.93834408
   0.40317739  0.56052369  0.93585341
   0.52425294  0.21257360  0.72737623
   0.63873366  0.25828797  0.74777438
   0.53062664  0.31158673  0.77563251
   0.70088876  0.27364616  0.91062170
   0.62547981  0.21619155 -0.00976043
   0.59711778  0.33044042  0.94510737
   0.52812382  0.13886186  0.96054524
   0.75941876  0.65749856  0.96852698
   0.77021814  0.59384332  0.87147652
   0.84458757  0.68564114  0.88255286
   0.92243217  0.68415616  0.02880290
  -0.00085719  0.63005539  0.96174592
   0.97027326  0.57039132  0.05642219
   0.89810456  0.45872585  1.02607477
   0.56370133  0.74983981  0.51637174
   0.46979733  0.67305471  0.49704427
   0.45996639  0.78054346  0.45991163
   0.44612132  0.61627131  0.35162370
   0.51177973  0.66269517  0.25866695
   0.43313676  0.72720862  0.31561972
   0.65580800  0.70276694  0.30486742
   0.10890781  0.51027602  0.96916634
   0.22603499  0.54627587  0.94970053
   0.18949716  0.43063621  0.93046671
   0.10129416  0.41132853  0.77768656
   0.22156610  0.42757899  0.77341182
   0.15181326  0.49133678  0.70370254
   0.14989697  0.63696191  0.74259202
   0.68576358 -0.02673319  0.48610933
   0.70354156  1.05469837  0.40394537
   0.59813916  0.99231376  0.40656968
   0.62650198  0.23019327  0.55037785
   0.69107011  0.21072696  0.45188425
   0.72701105  0.17873482  0.56045415
   0.52499038  0.13268223  0.60520349