unknown system                          
           1
    15.000000    0.000000    0.000000
     0.000000   15.000000    0.000000
     0.000000    0.000000   15.000000
   C    Co   H    N    O 
    91     1   183    20    19
Direct configuration=    50
   0.39950123  0.83076436  0.98936935
   0.26793808  0.72136568  0.00740471
   0.42975724  0.67611319  0.98047547
   0.22704312  0.99151172  0.88301757
   0.10996750  0.09378063  0.93847940
   0.17744416  0.98433579  0.04495063
   0.81439690  0.92232739  0.42786335
   0.74510211  0.76865687  0.44168152
   0.65056767  0.89902468  0.40249825
   0.07240552  0.14151165  0.48357390
   0.18559400  0.02103170  0.48034856
   0.16588140  0.11906340  0.61611237
   0.58293425  0.02005529  0.57590268
   0.41658347  0.05622052  0.58534661
   0.52181735  0.10134208  0.69711959
   0.34294241  0.33144056  0.18265306
   0.31043051  0.34789091  0.35744949
   0.23825904  0.23819546  0.26452806
   0.67580209  0.37938149  0.23645330
   0.73733115  0.50449856  0.32776964
   0.57804168  0.49615962  0.29475539
   0.28638653  0.93391966  0.25855013
   0.42984043  0.95805802  0.32114990
   0.33195901  0.86208961  0.40300475
   0.39696594  0.63272201  0.39063588
   0.34763803  0.60925823  0.23964995
   0.45790084  0.72796217  0.27255987
   0.49916503  0.47033052  0.88882435
   0.64493033  0.51705960  0.95987860
   0.52001286  0.45181839  0.04453264
   0.64369492  0.83365082  0.79843581
   0.54785961  0.75944723  0.68299448
   0.48418551  0.86935694  0.78139363
   0.87424432  0.29527309  0.44224965
   0.87938976  0.68791246  0.66835942
   0.93036744  0.37203075  0.41673405
   0.92807874  0.67219966  0.58766950
   0.96837548  0.36995382  0.32606535
   0.96659647  0.74656653  0.54717918
   0.90505601  0.22327327  0.29836340
   0.92922225  0.84260378  0.67742116
   0.83464660  0.28830856  0.53867130
   0.83759469  0.61174981  0.71707261
   0.86662209  0.22345867  0.38332984
   0.88473664  0.76889970  0.71298011
   0.95820884  0.29672788  0.27449854
   0.96452620  0.83257754  0.59390035
   0.89718121  0.14301207  0.23745372
   0.92829990  0.93375581  0.73101102
   0.01258430  0.44839337  0.29758807
   1.02155073  0.74295001  0.46660455
   0.04698526  0.59839928  0.27211842
   0.08338059  0.67394962  0.33081675
   0.90228295  0.30976990  0.61211880
   0.79781517  0.19132700  0.56016970
   0.75380494  0.36029399  0.55319346
   0.89310603  0.52849068  0.73384581
   0.79235592  0.63314837  0.80481362
   0.75741260  0.58155061  0.65905136
   0.93075827  0.15505029  0.14162777
   0.96644190  0.07339306  0.27166034
   0.80090385  0.10856500  0.23335942
   0.85716144  0.99935473  0.70337773
   1.02226222  0.98733005  0.70986615
   0.92564444  0.91773625  0.82860020
   0.97174224  0.62748227  0.20560472
   0.08691376  0.76462336  0.27864496
   0.99957530  0.70472402  0.14264313
   1.02213862  0.78511885  0.20056193
   0.68736343  0.25995570  0.05556415
   0.76138206  0.14209800  0.96718848
   0.64681758  0.23523252  0.89870624
   0.76057492  0.82870960  0.16426878
   0.70422465  0.78987925  0.01771515
   0.69058683  0.67922290  0.14500040
   0.14932336  0.61082721  0.71604972
   0.19981792  0.55440337  0.56735529
   0.31006058  0.62350646  0.67487933
   0.18626179  0.71891357  0.59592645
   0.97752891  0.54655523  0.96621512
   0.00617043  0.38846500  0.95535549
   0.88393304  0.44339069  0.04249885
   0.39726311  0.33709978  0.65986343
   0.55528856  0.35916356  0.69069743
   0.47557100  0.45409148  0.58489903
   0.48219564  0.09263933  0.12794652
   0.39937893  0.09476406  0.98584596
   0.55398312  0.03467950  0.99189665
   0.28351197  0.28448842  0.91095745
   0.24060177  0.43987889  0.92254935
   0.19162019  0.36420497  0.78773011
   0.97696538  0.56656298  0.44035553
   0.46965193  0.82759207  0.97930501
   0.38317166  0.87898982  0.04161512
   0.38485597  0.86660601  0.92470088
   0.23109305  0.75018202  0.94731773
   0.24837248  0.75413400  0.06914903
   0.26135034  0.64997544  1.01276314
   0.39492457  0.61219054  0.98391600
   0.26518203  0.93446522  0.90734738
   0.27981320  0.03695212  0.86430643
   0.18273948  0.96783247  0.82805519
   0.07704129  0.11706688  0.00059878
   0.06021999  0.06298726  0.89933085
   0.14110720  0.15261370  0.89915125
   0.12866226  0.01720562  0.08795830
   0.84258470  0.92461982  0.36160378
   0.86396415  0.89035968  0.47205901
   0.79264009  0.98682484  0.44791685
   0.71928696  0.75775342  0.51115457
   0.81772507  0.74619146  0.44032012
   0.70962094  0.72977025  0.39326655
   0.59511929  0.85177829  0.40760375
   0.05572946  0.20712633  0.51635520
   0.01103440  0.09860351  0.47459423
   0.09499817  0.15465962  0.41525784
   0.22815224  0.04731243  0.42941393
   0.13560191  0.97947509  0.43780068
   0.22097293  0.97024773  0.51685000
   0.21222289  0.06455235  0.64709717
   0.56990658  0.01889985  0.50598363
   0.59397302  0.95108338  0.60019645
   0.63956764  1.06806272  0.58101217
   0.37458576  0.09382227  0.63256287
   0.39804032 -0.01397635  0.58327765
   0.41727666  0.09200046  0.51860883
   0.46331621  0.12421531  0.73818265
   0.40520694  0.36660517  0.19658403
   0.29909374  0.37606104  0.14543960
   0.36066996  0.27066948  0.14755686
   0.24579816  0.34647478  0.38893578
   0.34104754  0.41391396  0.35961476
   0.35079955  0.31247991  0.40854319
   0.21357546  0.22251378  0.33305636
   0.70195045  0.39261671  0.17030826
   0.61752250  0.33415332  0.23706635
   0.73162022  0.34284968  0.27648460
   0.70951361  0.55854905  0.36616329
   0.78479211  0.53829558  0.28598133
   0.77142056  0.45809301  0.37737364
   0.57376339  0.55536015  0.34218600
   0.28221394  1.00130960  0.23348089
   0.21559986  0.91455278  0.27157806
   0.31122549  0.88877971  0.20484728
   0.45033643  0.93704946  0.25489574
   0.47204766  0.92928550  0.37204648
   0.42559249  0.03016826  0.30864550
   0.38966889  0.84948360  0.44385946
   0.33046999  0.64009471  0.41650425
   0.43690874  0.67302921  0.43185565
   0.41993726  0.56042227  0.38565826
   0.39463541  0.55282827  0.22392087
   0.32760528  0.63844338  0.17449306
   0.29092206  0.57494896  0.26865092
   0.44381310  0.74767047  0.20271467
   0.43105952  0.49805583  0.90200214
   0.49291082  0.39865118  0.87473903
   0.53985389  0.50312086  0.83357505
   0.68395959  0.46721569  0.92056716
   0.67550564  0.52355518  0.02610438
   0.64933815  0.58342460  0.93231101
   0.56778572  0.47182671  0.10200965
   0.58933882  0.70071166  0.69821349
   0.57188978  0.79084746  0.61880912
   0.64422338  0.89215567  0.84523077
   0.69954371  0.83059398  0.75153453
   0.47962732  0.73330027  0.68217238
   0.65669613  0.77584623  0.84492732
   0.50197431  0.90848921  0.84364286
   0.82036204  0.16886909  0.39954452
   0.84630944  0.78262573  0.77417763
  -0.02018026  0.31005731  0.20380672
   1.00300520  0.88960956  0.56862110
   0.04857728  0.43927820  0.23121021
   0.06215193  0.79937024  0.44879946
   0.10473575  0.56974204  0.23158213
   0.15067241  0.65916505  0.35823801
   0.94421304  0.36854069  0.59144403
   0.87567942  0.31773258  0.67967594
   0.95154878  0.25796243  0.61265900
   0.75765306  0.16066428  0.50784715
   0.85586968  0.15069638  0.56714671
   0.76134046  0.18099578  0.62024945
   0.77734809  0.42371375  0.53092390
   0.69580715  0.33601919  0.51906320
   0.74458556  0.37327083  0.62478665
   0.84428239  0.47662700  0.75516169
   0.91444633  0.50676500  0.66446849
   0.94853095  0.53453951  0.78031020
   0.76824366  0.57456382  0.84028971
   0.82945717  0.67074231  0.85668515
   0.73275774  0.67254505  0.78614410
   0.71325254  0.53717052  0.69864676
   0.71207758  0.63560457  0.64136416
   0.78465657  0.54521159  0.59687000
   0.90449480  0.09327234  0.10206307
   0.90434172  0.21251461  0.10441011
   1.00730374  0.15040383  0.13284806
   0.96867660  1.01008111  0.23520210
   0.03061185  0.10404703  0.25795594
   0.95596863  0.05479798  0.34243375
   0.76136499  0.15182255  0.19218989
   0.80087594  0.04082081  0.20398324
   0.75784850  0.09391393  0.29017028
   0.86870690  0.06494395  0.72761959
   0.85542246 -0.00099824  0.63106173
   0.79317779  0.97184192  0.72204279
   0.08011182  0.94793486  0.73120897
   1.02657211 -0.00175139  0.63935352
   1.01622492  0.04830022  0.74795287
   0.92154070  0.98278036  0.86238013
   0.86349263  0.88537972  0.85529154
   0.98463458  0.87899949  0.85277845
   0.91093492  0.64808939  0.23943671
   0.94806485  0.56659076  0.17166186
   0.15752990  0.77094431  0.25690433
   0.08218115  0.81767491  0.33001314
   0.94639958  0.72115491  0.09457029
   0.05830030  0.68880447  0.10225441
   0.04969953  0.84067793  0.16102254
   0.95641206  0.80965041  0.22704329
   0.75449091  0.29442619  0.06461051
   0.67855796  0.21778584  0.11186605
   0.64014375  0.31130637  0.05662205
   0.82786888  0.17460131  0.97229762
   0.75598465  0.11435947  0.89984895
   0.75031843  0.09122313  0.02059567
   0.66017669  0.18395573  0.84574346
   0.82510070  0.79958163  0.18016429
   0.73428687  0.84142099  0.23457392
   0.75939656  0.89458018  0.12996319
   0.67405690  0.69287262  0.21585079
   0.74421938  0.62920650  0.13374958
   0.62790076  0.65555131  0.11001027
   0.65647766  0.74170434  0.98587919
   0.19647364  0.77129173  0.64676098
   0.08283734  0.59402194  0.69280530
   0.25610264  0.55739691  0.52184972
   0.31638258  0.56725235  0.72231978
   0.11180561  0.71451317  0.58229023
   0.21501777  0.72259523  0.52801750
   0.17747808  0.56244928  0.76147428
   0.14950660  0.66848521  0.76207250
   0.13247315  0.55856293  0.53696231
   0.20298362  0.49198662  0.60435042
   0.33057705  0.68744866  0.70987734
   0.35314357  0.61728718  0.61779757
   0.05017968  0.56248209  0.97708389
   0.94396418  0.59284903  0.01141075
   0.95620804  0.55981471  0.89705733
   0.98568767  0.32121304  0.97239206
   0.07530432  0.38938850  0.97175664
   0.00783354  0.39387313  0.88253432
   0.87922860  0.37065591  0.06033565
   0.41251913  0.26617242  0.64824847
   0.34173029  0.36339644  0.61860272
   0.38089513  0.34365127  0.73292127
   0.60695141  0.40958116  0.67279414
   0.57003216  0.29301059  0.66430803
   0.54446039  0.35355314  0.76359204
   0.53286359  0.49481496  0.58441310
   0.49685577  0.03608576  0.17280990
   0.41292361  0.11224424  0.15394590
   0.52241291  0.15017355  0.13300805
   0.34113027  0.11542734  0.03424135
   0.59280319  0.08905661 -0.03784342
   0.54173009 -0.01297244  0.93705420
   0.59447475  0.99909739  0.04005852
   0.29573898  0.28881242  0.98254270
   0.35434411  0.27490795  0.88793019
   0.24165316  0.22655903  0.89726805
   0.28180556  0.43165822  0.98295589
   0.22807349  0.39420352  0.73330686
   0.13103187  0.40049820  0.79796640
   0.17211107  0.29440495  0.76765829
   0.37153532  0.74235350  1.00248551
   0.18029806  0.03058475  0.96277442
   0.73461102  0.86489188  0.42191429
   0.13782480  0.08987936  0.53358407
   0.50783021  0.06433170  0.61736540
   0.29854611  0.30741830  0.26790324
   0.65959074  0.45654872  0.28721829
   0.34049419  0.92449898  0.33831440
   0.39572859  0.66671016  0.30237465
   0.55292166  0.48472994  0.96776727
   0.55442742  0.82464157  0.75460894
   0.01179339  0.52904833  0.32908770
   0.02553097  0.67328346  0.41561991
   0.68959867  0.20908071  0.97415481
   0.71652220  0.76624105  0.10736712
   0.21151670  0.62560029  0.63768100
   0.95525452  0.45910873  0.98979464
   0.47435262  0.38682368  0.64486323
   0.47355363  0.06926212  0.03296098
   0.23953298  0.36106601  0.87325322
   0.50814980  0.68036857  0.94793727
   0.22332560  0.92082433  0.06811218
   0.63456215  0.97506674  0.37638684
   0.13213354  0.18228161  0.66185657
   0.59946806  0.10625597  0.72912843
   0.21587496  0.20011662  0.19560540
   0.50717099  0.46988633  0.25662865
   0.26075726  0.82123071  0.41574996
   0.51946433  0.76149932  0.31546075
   0.44644986  0.41398996  0.05088328
   0.40863267  0.86676858  0.74776755
   0.93079885  0.44441908  0.46298943
   0.93267097  0.58992013  0.55519756
   0.59559570  0.29866744  0.89229131
   0.73893413  0.85502964  0.98003910
   0.83486277  0.50299930  0.07107455
   0.40958384  0.47341331  0.53720180
   0.39569035  0.09479873  0.90468691
   0.20577916  0.51183807  0.89686985
Direct configuration=   100
   0.39046592  0.83439157  1.00063367
   0.26387001  0.72520225  0.00742480
   0.42861761  0.68126235  0.97352661
   0.20422609  0.97000133  0.88399559
   0.10946906  0.10370280  0.93731908
   0.17325335  0.99050873  0.03692881
   0.81622168  0.90488117  0.41114788
   0.72693256  0.76659298  0.44514761
   0.65837831  0.90409451  0.39166291
   0.06386513  0.15961520  0.48951735
   0.17518081  0.02710523  0.47645533
   0.16116913  0.11438122  0.61366821
   0.59264610  0.04347141  0.57187826
   0.43077282  0.03126350  0.59380516
   0.52502003  0.09799768  0.70723288
   0.34613081  0.32053815  0.19638714
   0.32436602  0.34350580  0.35891179
   0.22316890  0.23955535  0.27309371
   0.68347226  0.37084238  0.25791618
   0.74815989  0.50405210  0.32400359
   0.58390846  0.48915643  0.30410804
   0.28970588  0.94713278  0.25980604
   0.43721791  0.97131910  0.33497121
   0.32849082  0.86858980  0.39755476
   0.39642301  0.63373870  0.40661497
   0.34419432  0.59840854  0.24631673
   0.45478652  0.71230611  0.27953786
   0.50841764  0.49183046  0.88110798
   0.65259258  0.50179512  0.96511937
   0.51868408  0.44214360  0.03745146
   0.64157279  0.82442629  0.79860210
   0.54192570  0.73482784  0.69051592
   0.48707861  0.86943621  0.76741988
   0.87438072  0.29129007  0.44551167
   0.87416067  0.69559259  0.66200516
   0.92114375  0.37542357  0.41725059
   0.92227403  0.67847460  0.58283304
   0.94883339  0.38086501  0.31947446
   0.97410676  0.75073022  0.54594010
   0.90426835  0.22378971  0.29757632
   0.94107323  0.84850924  0.67701237
   0.83426966  0.28934390  0.53336155
   0.81599105  0.62206392  0.70173547
   0.86488340  0.22208014  0.38145653
   0.88312709  0.77517607  0.70916451
   0.93859621  0.30233835  0.26975102
   0.98411860  0.83552360  0.59621059
   0.90749675  0.14035540  0.23705482
   0.94443401  0.93681595  0.72566305
  -0.00580871  0.45257953  0.28210292
   1.01620523  0.74589448  0.45937962
   0.05612567  0.59936137  0.26638787
   0.08772552  0.67330272  0.33057358
   0.90098374  0.31214047  0.61387458
   0.78813988  0.19968677  0.55587226
   0.75078863  0.35515777  0.53408348
   0.86949834  0.52831409  0.71113583
   0.79643819  0.63727753  0.80431344
   0.73317223  0.60425885  0.65372187
   0.93640554  0.16563837  0.13940936
   0.97054091  0.07246561  0.27684842
   0.81850322  0.08765263  0.22824513
   0.87077205  0.99893470  0.68953541
   1.03662069  0.97674168  0.71018550
   0.93140146  0.92437767  0.82933621
   0.98748387  0.63229107  0.19853963
   0.10283511  0.76104977  0.27842695
   1.02305782  0.71043410  0.14750151
   1.04120147  0.79001318  0.20896798
   0.69188633  0.26600058  0.04723313
   0.76371079  0.13807380  0.97334806
   0.64738831  0.22647562  0.90170530
   0.77157518  0.82700525  0.16991789
   0.71857094  0.77597467  0.02265274
   0.69389421  0.67367471  0.14408744
   0.14561262  0.61406711  0.72278821
   0.19643952  0.56610336  0.57232994
   0.30690516  0.63943484  0.67352649
   0.19105801  0.72691885  0.60521303
   0.97659691  0.54743925  0.97656574
   0.00406977  0.38633285  0.96738177
   0.87538357  0.43505013  0.04346820
   0.38841338  0.34073007  0.66730766
   0.55339388  0.34484450  0.68629993
   0.48011832  0.45096365  0.58678774
   0.48302154  0.09330749  0.13465327
   0.40062234  0.11257783  0.99503476
   0.53869416  0.02899607  0.98615728
   0.29137711  0.30043902  0.89651658
   0.24395456  0.45420391  0.91541151
   0.17364229  0.37046378  0.79484022
   0.98112514  0.55705514  0.42996895
   0.46268782  0.83805059  1.02137676
   0.34754769  0.88215208  0.03972358
   0.39303675  0.86711367  0.93741429
   0.23856821  0.72831186  0.94019094
   0.23513659  0.77252660  0.05291386
   0.24635585  0.65584335  1.02926876
   0.40501909  0.60972223  0.98754317
   0.21050235  0.89958984  0.90352483
   0.27498981 -0.01250519  0.86488975
   0.15915834  0.97763961  0.82888775
   0.09928858  0.14005397 -0.00036014
   0.04250461  0.07451769  0.91951091
   0.13906917  0.14621695  0.88813194
   0.15227476  0.03893684  0.08881820
   0.87376035  0.86267248  0.38295191
   0.83811670  0.92094081  0.47946465
   0.80050843  0.96647412  0.37322864
   0.66355698  0.74610860  0.47501622
   0.77443305  0.75051082  0.49801576
   0.74483822  0.72513469  0.38529632
   0.59493052  0.86562257  0.38985519
   0.07491464  0.21761782  0.52737820
  -0.00554746  0.13937592  0.49041058
   0.07993849  0.17338158  0.41889504
   0.21269632  0.05855250  0.41871818
   0.13529599  0.97553420  0.44948552
   0.22352985  0.98994807  0.51789225
   0.21715196  0.06887298  0.62693575
   0.58003565  0.03430828  0.49853593
   0.61722350  0.97932583  0.59779257
   0.64124860  1.09566321  0.57908958
   0.38145736  0.08304557  0.59737132
   0.40988369 -0.02410993  0.63824294
   0.43434198  0.00513179  0.52368895
   0.46084325  0.11899983  0.74048379
   0.38514841  0.38081852  0.20181816
   0.30193940  0.32590431  0.13677684
   0.39445352  0.26515790  0.18633810
   0.27368107  0.38071432  0.40319958
   0.38121497  0.38284046  0.34511056
   0.35852914  0.29577594  0.40459236
   0.18447592  0.23746636  0.33665203
   0.72942442  0.38312324  0.20186181
   0.61624516  0.34862124  0.23948428
   0.71517139  0.31921699  0.29562453
   0.74895719  0.56101225  0.37327490
   0.77369429  0.52694187  0.25674736
   0.79503635  0.45208533  0.34236402
   0.58649677  0.55517634  0.33467946
   0.30846595  1.01627352  0.23610487
   0.22108080  0.94829426  0.28066628
   0.29504742  0.90039721  0.20349140
   0.48169110  0.94672489  0.28044101
   0.46296730  0.94837571  0.40153380
   0.41841210  0.04121516  0.32420632
   0.37239266  0.86580790  0.45847383
   0.33336010  0.66491815  0.43550816
   0.46058628  0.66456718  0.43150503
   0.40243347  0.56312473  0.41832771
   0.36122958  0.52841604  0.23641115
   0.34294543  0.62862596  0.18169528
   0.27374814  0.60122693  0.27272120
   0.45919208  0.72206287  0.20603494
   0.44562998  0.51431898  0.90468501
   0.50002791  0.42265071  0.84767787
   0.54336392  0.53230190  0.83821524
   0.69861191  0.44944450  0.94229379
   0.67460631  0.52471884  0.02958757
   0.66576528  0.56024148  0.92140063
   0.56509510  0.43251119  0.09172895
   0.57923417  0.67681368  0.71517681
   0.56009536  0.74550165  0.62176117
   0.64603520  0.89131671  0.82878073
   0.69923844  0.81490036  0.75511864
   0.47057931  0.71851302  0.69740076
   0.65215629  0.77883254  0.85221817
   0.51011667  0.92815339  0.80260765
   0.83023174  0.16065849  0.40456631
   0.85462037  0.78229454  0.77542389
  -0.03217581  0.31447526  0.20255155
   1.01637955  0.89352607  0.56582713
   0.01623185  0.44639836  0.21363745
   0.04759245  0.80757880  0.43300792
   0.11360609  0.57360373  0.23245469
   0.15196898  0.65295406  0.36154584
   0.91970960  0.38186857  0.61531158
   0.86647083  0.29411573  0.67746930
   0.96425882  0.27247126  0.61212903
   0.72961976  0.18306910  0.51156517
   0.83071724  0.13685340  0.55497297
   0.76713086  0.20397572  0.62956651
   0.78081365  0.42082973  0.51583441
   0.69619136  0.33177507  0.48837714
   0.72744338  0.36155292  0.60517904
   0.82494168  0.48157766  0.74428996
   0.88422356  0.50083156  0.64636765
   0.92598482  0.53954472  0.75581908
   0.77115217  0.56979812  0.82722526
   0.85530134  0.64330781  0.84926028
   0.74771128  0.68284333  0.82234931
   0.69062192  0.55298931  0.68671353
   0.69253483  0.66371563  0.65034348
   0.75014849  0.58130928  0.58994940
   0.95055838  0.11163970  0.09555214
   0.88461391  0.20687903  0.10821113
   0.99434341  0.20457283  0.14122015
   0.97406857  1.01779066  0.22679082
   0.04025284  0.09958669  0.28482400
   0.94673762  0.03831836  0.33626764
   0.75559388  0.12728659  0.21415559
   0.81900867  0.02797586  0.18355623
   0.79879180  0.05679156  0.29270726
   0.87649043  0.06174963  0.73313764
   0.88217087  0.02049827  0.61985275
   0.80381440  0.96684815  0.69861653
   0.08588753  0.92089161  0.71652956
   1.03569712 -0.00268480  0.63981440
   1.04984423  0.03216817  0.75534376
   0.92531255  0.98827046  0.86479810
   0.86849748  0.88685176  0.84279601
   0.98098659  0.88142908  0.86059241
   0.92246541  0.65106780  0.23238883
   0.97581254  0.57546993  0.15220288
   0.16565948  0.74791953  0.24358870
   0.12558186  0.81492390  0.32376033
   0.98355371  0.73006001  0.08854673
   0.08962618  0.68721397  0.12219299
   0.06988268  0.84878197  0.17577008
   0.97469220  0.80601448  0.23372922
   0.73637378  0.31985273  0.06446441
   0.68910772  0.22260123  0.11117017
   0.62247887  0.29496973  0.03721915
   0.83233791  0.16464204  0.98112452
   0.76578986  0.10510887  0.90917686
   0.74272628  0.09536611  0.02682074
   0.66205410  0.18371211  0.84511117
   0.82335742  0.80437298  0.21775845
   0.72424772  0.85175752  0.21995364
   0.78419129  0.88936683  0.12940243
   0.68457551  0.67693818  0.21755499
   0.73172524  0.61362672  0.12485768
   0.62695643  0.66383575  0.11997581
   0.69704940  0.71688251  0.98682744
   0.19820839  0.77304072  0.66345570
   0.07937087  0.63582258  0.70091919
   0.23613297  0.57916751  0.51340211
   0.32197002  0.57188006  0.69373282
   0.12552391  0.73618311  0.58673388
   0.23376262  0.74006539  0.54659361
   0.14469307  0.54172395  0.73637861
   0.16551616  0.64039569  0.78799260
   0.12467455  0.56293711  0.55311922
   0.21626325  0.49862970  0.60074119
   0.32184652  0.68605673  0.72798183
   0.35006328  0.65935534  0.61672279
   0.04354139  0.56550404  1.00107960
   0.93065392  0.59878545  0.00132159
   0.98727743  0.54761501  0.90480427
   1.01332223  0.33202101  1.01597528
   0.07571527  0.40411444  0.95484350
  -0.01741277  0.35355937  0.90361739
   0.86790446  0.36408108  0.05138952
   0.37876181  0.27277056  0.63997144
   0.33967416  0.38853810  0.64502647
   0.38314137  0.32750224  0.73933452
   0.61132049  0.39181682  0.68552593
   0.56762113  0.28254882  0.65169422
   0.53985952  0.32928409  0.75667672
   0.55504320  0.46996001  0.56491649
   0.49210980  0.03012985  0.16789477
   0.42284163  0.11856365  0.16600057
   0.54064576  0.14049049  0.14613988
   0.35549836  0.15015775  0.03434032
   0.56788895  0.06526030 -0.07088990
   0.50559097 -0.02859502  0.95767773
   0.59057752  0.99908646  0.02923821
   0.26382015  0.27356286  0.95952206
   0.36055078  0.31647577  0.90790026
   0.28245650  0.24563691  0.84506379
   0.29537820  0.44597806  0.97122384
   0.20946849  0.37553791  0.72834903
   0.12204866  0.42429797  0.79391341
   0.14215118  0.30427321  0.79315233
   0.36452249  0.74249244  1.00148084
   0.16805787  0.02386646  0.95544114
   0.73089903  0.86141540  0.41856395
   0.13181619  0.09763405  0.52463945
   0.51439590  0.06391222  0.62358875
   0.29069958  0.29951441  0.27532071
   0.66725817  0.45289882  0.30492130
   0.35329337  0.92412090  0.32980029
   0.40019499  0.64841580  0.31047630
   0.55931822  0.47682038  0.96588398
   0.55713743  0.81826043  0.74646218
   0.01791461  0.52688247  0.32272266
   0.02088234  0.67393380  0.40995219
   0.70401343  0.21453855  0.96912836
   0.73119368  0.75971652  0.11175768
   0.21004441  0.63552623  0.64418529
   0.95202235  0.45765271  1.00126359
   0.47308495  0.38563420  0.64878228
   0.47409145  0.08441765  0.03767516
   0.23823780  0.37655161  0.86673233
   0.50625776  0.69091412  0.95193956
   0.19798213  0.91229081  0.05988312
   0.65260670  0.98424777  0.37044956
   0.14232435  0.17820732  0.66126321
   0.59547349  0.10922607  0.74367268
   0.20680618  0.18757637  0.20958528
   0.51884077  0.45695527  0.26827294
   0.25903267  0.82576791  0.39494158
   0.50254030  0.76230185  0.32725825
   0.43836213  0.41809144  0.03922699
   0.41103072  0.85665824  0.74153192
   0.92973647  0.44620795  0.46814283
   0.91660233  0.60210216  0.54180288
   0.58732155  0.28479858  0.90189067
   0.73074479  0.84888176  0.98435376
   0.81597388  0.48619127  0.06828447
   0.41722724  0.48712857  0.55071934
   0.38917485  0.09082610  0.91533310
   0.19422632  0.52192617  0.90698058
Direct configuration=   150
   0.38845544  0.83992569  1.00804018
   0.26502161  0.71315437  0.00663099
   0.42617532  0.68680796  0.97667890
   0.17745374  0.95968812  0.88404280
   0.13286484  0.11262200  0.93200292
   0.15104248  0.98745244  0.04059951
   0.82348754  0.88483380  0.40909922
   0.71166308  0.76485403  0.44544092
   0.66527503  0.91071419  0.38677354
   0.06876576  0.17008832  0.49738944
   0.15099206  0.03539175  0.46853273
   0.17661877  0.12531550  0.60618778
   0.59661346  0.05393190  0.57611793
   0.43544383  0.02154701  0.59867137
   0.52459144  0.08158693  0.71839335
   0.34715294  0.29987718  0.20246856
   0.32368156  0.33692025  0.36491539
   0.22410886  0.23597767  0.28255367
   0.69416618  0.36069621  0.27772352
   0.75412192  0.50979516  0.33284962
   0.59531899  0.48699440  0.30772883
   0.29859987  0.95609477  0.25761982
   0.44145695  0.97862852  0.34580762
   0.33755204  0.87039890  0.39092545
   0.38836886  0.62750423  0.41098285
   0.33958684  0.59187655  0.25755623
   0.45664674  0.70693179  0.28270997
   0.51347368  0.49545762  0.87076671
   0.64673838  0.48409340  0.96414228
   0.50169749  0.44333481  0.02625961
   0.63377399  0.82847646  0.77919816
   0.53293042  0.72129691  0.71277037
   0.47596995  0.86571936  0.75421497
   0.87991518  0.29388853  0.43379865
   0.87963843  0.68766908  0.65750325
   0.91843444  0.37964800  0.40402690
   0.91932384  0.67712915  0.57036492
   0.94807119  0.37921973  0.31283951
   0.97035748  0.74786584  0.53387531
   0.91182997  0.21667471  0.29080373
   0.94466729  0.84294802  0.66652740
   0.83015276  0.29905538  0.52470976
   0.81865050  0.61513183  0.70118195
   0.88120101  0.21779986  0.37972339
   0.89253394  0.76927278  0.69730827
   0.93583266  0.30406083  0.25874587
   0.98076382  0.83228685  0.58229421
   0.91490516  0.13380463  0.23551517
   0.95321381  0.92759677  0.71574873
  -0.00839121  0.45180269  0.28174706
   1.01414288  0.74428976  0.45126315
   0.05600130  0.59501069  0.26834408
   0.09236004  0.66520925  0.33370157
   0.89481739  0.30993249  0.60342291
   0.78765684  0.20722215  0.54565829
   0.75908783  0.37169916  0.52900362
   0.86179980  0.52288296  0.68897131
   0.79840507  0.63675771  0.79797417
   0.73137100  0.62419506  0.64143579
   0.94665254  0.15200987  0.14064312
   0.98653647  0.07199123  0.27796295
   0.81887750  0.09376384  0.22979163
   0.87815224  0.99577013  0.67936019
   1.04162349  0.97379811  0.69856539
   0.93802291  0.92187028  0.82050588
   0.99442566  0.63534930  0.19763546
   0.12004386  0.74926987  0.29164187
   1.03027371  0.71923762  0.15371637
   1.05234767  0.79052468  0.22400117
   0.69411858  0.26009030  0.05627917
   0.76964947  0.14037124  0.96230989
   0.64618945  0.22526116  0.90050221
   0.77168735  0.81881691  0.16959029
   0.71702901  0.77678963  0.02615684
   0.70681698  0.67032487  0.15593843
   0.14786252  0.63389223  0.72319451
   0.18927967  0.58424860  0.56914131
   0.30121384  0.63005145  0.68076052
   0.19863158  0.74199762  0.61604499
   0.96346299  0.54258921  0.97803006
   0.01182917  0.38142805  0.98186086
   0.87351734  0.42589256  0.05415697
   0.38748171  0.34770169  0.67010559
   0.55304248  0.32135303  0.67444278
   0.48474155  0.45346016  0.59928167
   0.49422893  0.09937864  0.12724496
   0.40064254  0.11835579  0.99666628
   0.53580440  0.02688464  0.99104252
   0.29523975  0.31177493  0.88234614
   0.24138910  0.46584058  0.91563640
   0.16348364  0.36835333  0.80817708
   0.97061946  0.56625740  0.43027003
   0.45257191  0.84753379  1.04090138
   0.34087334  0.88088111  0.04037508
   0.38843487  0.87204756  0.93916310
   0.21714234  0.74223770  0.95791583
   0.23820847  0.71616299  0.07669318
   0.25746396  0.64100039  0.98670392
   0.40896780  0.61847533  0.96027835
   0.15340885  0.89159578  0.90181288
   0.24944874 -0.04414059  0.88218346
   0.15657617  0.98533231  0.81949530
   0.15467345  0.15300705 -0.00993986
   0.06508807  0.13070899  0.91140007
   0.18529986  0.12534785  0.88074983
   0.12077973  0.03773521  0.08926256
   0.86592515  0.83086376  0.40940367
   0.84015181  0.92808034  0.46665005
   0.83719389  0.92708423  0.34764471
   0.65883490  0.72789347  0.41066651
   0.67914677  0.77321025  0.51150568
   0.76819376  0.71876518  0.45044449
   0.59955669  0.87909338  0.39436504
   0.05803037  0.23239310  0.53733902
   0.00925723  0.12562941  0.50604068
   0.06728231  0.17815799  0.42297020
   0.15930785  0.05095162  0.39903353
   0.08522454  0.99257434  0.47421294
   0.20311033  0.98774911  0.49161189
   0.21993674  0.07060069  0.62367204
   0.58352349  0.09100941  0.51358211
   0.61379498  0.98435462  0.55733416
   0.65579912  1.08126524  0.60829718
   0.37958527  0.07457879  0.59023956
   0.40422374 -0.03306549  0.63802876
   0.44730303 -0.00474012  0.53550627
   0.46751807  0.07468987  0.76233262
   0.34156801  0.36572093  0.17006809
   0.32392560  0.24886253  0.15542193
   0.41670929  0.28267025  0.21651725
   0.27274382  0.37273219  0.39661412
   0.38164297  0.38967167  0.34608310
   0.35660151  0.29097774  0.41242009
   0.18799204  0.24370459  0.34903191
   0.75075747  0.35614304  0.22786148
   0.63167434  0.33069147  0.25414515
   0.72371278  0.31510652  0.33267695
   0.71691673  0.57178204  0.33585647
   0.80473273  0.51561885  0.28126163
   0.78442279  0.49540859  0.39594735
   0.59323909  0.55739458  0.33441109
   0.29430755  1.02803165  0.24830201
   0.23085622  0.93005853  0.27092231
   0.33008654  0.92673068  0.19679704
   0.47991389  0.95190734  0.29119758
   0.46829223  0.95669583  0.40812873
   0.42614422  0.05016278  0.34285834
   0.39388233  0.83889427  0.43012609
   0.33013292  0.67146005  0.42018036
   0.45168686  0.64644625  0.44553231
   0.37099398  0.55971847  0.42733754
   0.32645990  0.52286298  0.27851009
   0.36898375  0.58700498  0.18814351