 Entering Gaussian System, Link 0=g16
 Initial command:
 /common/software/install/migrated/gaussian/g16.c01.avx2/g16/l1.exe "/tmp/quach062/31557435/Gau-3671045.inp" -scrdir="/tmp/quach062/31557435/"
 Entering Link 1 = /common/software/install/migrated/gaussian/g16.c01.avx2/g16/l1.exe PID=   3671046.
  
 Copyright (c) 1988-2019, Gaussian, Inc.  All Rights Reserved.
  
 This is part of the Gaussian(R) 16 program.  It is based on
 the Gaussian(R) 09 system (copyright 2009, Gaussian, Inc.),
 the Gaussian(R) 03 system (copyright 2003, Gaussian, Inc.),
 the Gaussian(R) 98 system (copyright 1998, Gaussian, Inc.),
 the Gaussian(R) 94 system (copyright 1995, Gaussian, Inc.),
 the Gaussian 92(TM) system (copyright 1992, Gaussian, Inc.),
 the Gaussian 90(TM) system (copyright 1990, Gaussian, Inc.),
 the Gaussian 88(TM) system (copyright 1988, Gaussian, Inc.),
 the Gaussian 86(TM) system (copyright 1986, Carnegie Mellon
 University), and the Gaussian 82(TM) system (copyright 1983,
 Carnegie Mellon University). Gaussian is a federally registered
 trademark of Gaussian, Inc.
  
 This software contains proprietary and confidential information,
 including trade secrets, belonging to Gaussian, Inc.
  
 This software is provided under written license and may be
 used, copied, transmitted, or stored only in accord with that
 written license.
  
 The following legend is applicable only to US Government
 contracts under FAR:
  
                    RESTRICTED RIGHTS LEGEND
  
 Use, reproduction and disclosure by the US Government is
 subject to restrictions as set forth in subparagraphs (a)
 and (c) of the Commercial Computer Software - Restricted
 Rights clause in FAR 52.227-19.
  
 Gaussian, Inc.
 340 Quinnipiac St., Bldg. 40, Wallingford CT 06492
  
  
 ---------------------------------------------------------------
 Warning -- This program may not be used in any manner that
 competes with the business of Gaussian, Inc. or will provide
 assistance to any competitor of Gaussian, Inc.  The licensee
 of this program is prohibited from giving any competitor of
 Gaussian, Inc. access to this program.  By using this program,
 the user acknowledges that Gaussian, Inc. is engaged in the
 business of creating and licensing software in the field of
 computational chemistry and represents and warrants to the
 licensee that it is not a competitor of Gaussian, Inc. and that
 it will not use this program in any manner prohibited above.
 ---------------------------------------------------------------
  

 Cite this work as:
 Gaussian 16, Revision C.01,
 M. J. Frisch, G. W. Trucks, H. B. Schlegel, G. E. Scuseria, 
 M. A. Robb, J. R. Cheeseman, G. Scalmani, V. Barone, 
 G. A. Petersson, H. Nakatsuji, X. Li, M. Caricato, A. V. Marenich, 
 J. Bloino, B. G. Janesko, R. Gomperts, B. Mennucci, H. P. Hratchian, 
 J. V. Ortiz, A. F. Izmaylov, J. L. Sonnenberg, D. Williams-Young, 
 F. Ding, F. Lipparini, F. Egidi, J. Goings, B. Peng, A. Petrone, 
 T. Henderson, D. Ranasinghe, V. G. Zakrzewski, J. Gao, N. Rega, 
 G. Zheng, W. Liang, M. Hada, M. Ehara, K. Toyota, R. Fukuda, 
 J. Hasegawa, M. Ishida, T. Nakajima, Y. Honda, O. Kitao, H. Nakai, 
 T. Vreven, K. Throssell, J. A. Montgomery, Jr., J. E. Peralta, 
 F. Ogliaro, M. J. Bearpark, J. J. Heyd, E. N. Brothers, K. N. Kudin, 
 V. N. Staroverov, T. A. Keith, R. Kobayashi, J. Normand, 
 K. Raghavachari, A. P. Rendell, J. C. Burant, S. S. Iyengar, 
 J. Tomasi, M. Cossi, J. M. Millam, M. Klene, C. Adamo, R. Cammi, 
 J. W. Ochterski, R. L. Martin, K. Morokuma, O. Farkas, 
 J. B. Foresman, and D. J. Fox, Gaussian, Inc., Wallingford CT, 2019.
 
 ******************************************
 Gaussian 16:  ES64L-G16RevC.01  3-Jul-2019
                14-Feb-2025 
 ******************************************
 %chk=CoIR_T_1.chk
 %lindaworkers=in-cn0088
 %nprocshared=128
 Will use up to  128 processors via shared memory.
 %mem=59800MB
 SetLPE:  input flags=" -workerwait 900 -opt "Tsnet.Node.lindarsharg: ssh " "
 SetLPE:    new flags=" -workerwait 900 -opt "Tsnet.Node.lindarsharg: ssh " -opt 'Tsnet.Node.lindarsharg: ssh'  -nodelist 'in-cn0088' -env GAUSS_MDEF=7838105600 -env GAUSS_EXEDIR="/common/software/install/migrated/gaussian/g16.c01.avx2/g16/bsd:/common/software/install/migrated/gaussian/g16.c01.avx2/g16/local:/common/software/install/migrated/gaussian/g16.c01.avx2/g16/extras:/common/software/install/migrated/gaussian/g16.c01.avx2/g16""
 Will use up to    1 processors via Linda.
 ----------------------------------------------------------------------
 # opt=calcfc # freq # m06/genecp/auto # nosymm integral=grid=ultrafine
  # scf=(tight,intrep,xqc) # SCRF=(SMD,Solvent=n,n-DiMethylFormamide)
 ----------------------------------------------------------------------
 1/10=4,18=20,19=15,26=6,38=1/1,3;
 2/9=110,12=2,15=1,17=6,18=5,40=1/2;
 3/5=7,11=2,16=1,17=8,25=1,30=1,70=32201,71=2,72=148,74=-54,75=-5,82=28,140=1/1,2,3;
 4//1;
 5/5=2,8=3,13=1,17=20,32=2,38=5,53=148/2,8;
 8/6=4,10=90,11=11/1;
 11/6=1,8=1,9=11,15=111,16=1,31=1/1,2,10;
 10/6=1,13=1,31=1/2;
 6/7=2,8=2,9=2,10=2,28=1/1;
 7/10=1,25=1,30=1/1,2,3,16;
 1/10=4,18=20,19=15,26=6/3(2);
 2/9=110,15=1/2;
 99//99;
 2/9=110,15=1/2;
 3/5=7,6=1,11=2,16=1,17=8,25=1,30=1,70=32205,71=1,72=148,74=-54,75=-5,82=7/1,2,3;
 4/5=5,16=3,69=1/1;
 5/5=2,8=3,13=1,17=20,32=2,38=5,53=148/2,8;
 7/30=1/1,2,3,16;
 1/18=20,19=15,26=6/3(-5);
 2/9=110,15=1/2;
 6/7=2,8=2,9=2,10=2,19=2,28=1/1;
 99/9=1/99;
 -------------------
 Title Card Required
 -------------------
 Symbolic Z-matrix:
 Charge = -1 Multiplicity = 3
 Co                    0.12354   0.30552  -1.23503 
 O                     1.33176  -1.17152  -1.38194 
 O                    -1.22324  -1.01676  -0.93961 
 N                     1.39589   1.52955  -1.69059 
 N                    -1.00723   1.71769  -0.91461 
 C                     3.36605  -2.37099  -1.56259 
 C                    -3.37375  -1.96831  -0.66566 
 C                     2.6071   -1.15013  -1.62082 
 C                    -2.49006  -0.83936  -0.7228 
 C                     3.31405   0.05604  -1.94915 
 C                    -3.06271   0.46508  -0.52974 
 C                     5.42064  -1.1601   -2.22583 
 C                    -5.29107  -0.49021  -0.16269 
 C                     2.6825   -3.67641  -1.13759 
 C                    -2.83012  -3.37574  -0.9417 
 C                     4.72017  -2.33292  -1.86901 
 C                    -4.72271  -1.75826  -0.38639 
 C                     4.69456   0.0154   -2.24914 
 C                    -4.43651   0.59762  -0.24798 
 C                     6.91235  -1.24322  -2.55016 
 C                    -6.77517  -0.28327   0.15252 
 C                     2.65699   1.32539  -1.99256 
 C                    -2.28003   1.6634   -0.60518 
 C                     0.85258   2.88291  -1.87442 
 C                    -0.29108   3.02087  -0.86954 
 C                     1.52697  -4.02221  -2.08895 
 C                     2.13908  -3.52706   0.29244 
 C                     3.64753  -4.86368  -1.13915 
 C                    -1.72139  -3.73754   0.0586 
 C                    -3.9134   -4.45051  -0.83138 
 C                    -2.26742  -3.435    -2.37104 
 C                     7.49902   0.12131  -2.90686 
 C                     7.67638  -1.79352  -1.33791 
 C                     7.12998  -2.18738  -3.7405 
 C                    -7.41149   0.61297  -0.91854 
 C                    -6.92169   0.40156   1.51809 
 C                    -7.54963  -1.60013   0.19358 
 C                     0.36845   3.0563   -3.31594 
 C                    -1.10885   4.28441  -1.11552 
 C                    -0.41152   4.34747  -3.51495 
 C                    -1.59148   4.41337  -2.55397 
 H                     5.28452  -3.25937  -1.82984 
 H                    -5.37306  -2.62321  -0.34124 
 H                     5.17346   0.95847  -2.50218 
 H                    -4.82101   1.60624  -0.09772 
 H                     3.25879   2.18655  -2.2993 
 H                    -2.81148   2.59042  -0.38336 
 H                     1.62371   3.6357   -1.65656 
 H                     0.15336   3.08261   0.13316 
 H                     1.06071  -4.9681   -1.78911 
 H                     0.76731  -3.24075  -2.08284 
 H                     1.88955  -4.14609  -3.11586 
 H                     2.95474  -3.34454   1.00098 
 H                     1.43117  -2.69965   0.36109 
 H                     1.62841  -4.44495   0.60646 
 H                     3.11344  -5.7658   -0.82389 
 H                     4.06238  -5.06066  -2.13318 
 H                     4.48434  -4.72244  -0.44752 
 H                    -1.35294  -4.75192  -0.13516 
 H                    -0.88512  -3.04231  -0.01571 
 H                    -2.10029  -3.71676   1.08686 
 H                    -3.47441  -5.43098  -1.04239 
 H                    -4.35115  -4.49825   0.17116 
 H                    -4.72775  -4.29788  -1.5469 
 H                    -3.05775  -3.24963  -3.10708 
 H                    -1.48027  -2.69343  -2.51632 
 H                    -1.8497   -4.42719  -2.57866 
 H                     8.56513   0.02163  -3.13376 
 H                     7.01544   0.55777  -3.7865 
 H                     7.40415   0.83578  -2.08308 
 H                     8.74766  -1.86793  -1.5556 
 H                     7.55711  -1.1421   -0.4659 
 H                     7.32764  -2.79191  -1.05747 
 H                     6.761    -3.19579  -3.53068 
 H                     6.61274  -1.82317  -4.63424 
 H                     8.19579  -2.2696   -3.98113 
 H                    -8.47321   0.7804   -0.70535 
 H                    -6.92621   1.59227  -0.9662 
 H                    -7.33798   0.15667  -1.91121 
 H                    -6.48954  -0.21054   2.31657 
 H                    -6.42153   1.37445   1.53744 
 H                    -7.97769   0.56799   1.75882 
 H                    -8.60199  -1.40508   0.42289 
 H                    -7.51599  -2.12723  -0.76517 
 H                    -7.1672   -2.27852   0.9628 
 H                    -0.27261   2.19671  -3.55781 
 H                     1.23089   3.00258  -3.98957 
 H                    -0.45168   5.13259  -0.88311 
 H                    -1.93717   4.35569  -0.40482 
 H                    -0.75087   4.42271  -4.55326 
 H                     0.24677   5.21005  -3.34017 
 H                    -2.14316   5.35065  -2.68023 
 H                    -2.29674   3.60387  -2.78603 
 

 GradGradGradGradGradGradGradGradGradGradGradGradGradGradGradGradGradGrad
 Berny optimization.
 Initialization pass.
                           ----------------------------
                           !    Initial Parameters    !
                           ! (Angstroms and Degrees)  !
 --------------------------                            --------------------------
 ! Name  Definition              Value          Derivative Info.                !
 --------------------------------------------------------------------------------
 ! R1    R(1,2)                  1.9139         calculate D2E/DX2 analytically  !
 ! R2    R(1,3)                  1.9104         calculate D2E/DX2 analytically  !
 ! R3    R(1,4)                  1.8234         calculate D2E/DX2 analytically  !
 ! R4    R(1,5)                  1.8373         calculate D2E/DX2 analytically  !
 ! R5    R(2,8)                  1.2977         calculate D2E/DX2 analytically  !
 ! R6    R(3,9)                  1.2974         calculate D2E/DX2 analytically  !
 ! R7    R(4,22)                 1.3127         calculate D2E/DX2 analytically  !
 ! R8    R(4,24)                 1.4699         calculate D2E/DX2 analytically  !
 ! R9    R(5,23)                 1.311          calculate D2E/DX2 analytically  !
 ! R10   R(5,25)                 1.4877         calculate D2E/DX2 analytically  !
 ! R11   R(6,8)                  1.4387         calculate D2E/DX2 analytically  !
 ! R12   R(6,14)                 1.5336         calculate D2E/DX2 analytically  !
 ! R13   R(6,16)                 1.3889         calculate D2E/DX2 analytically  !
 ! R14   R(7,9)                  1.4348         calculate D2E/DX2 analytically  !
 ! R15   R(7,15)                 1.5338         calculate D2E/DX2 analytically  !
 ! R16   R(7,17)                 1.3935         calculate D2E/DX2 analytically  !
 ! R17   R(8,10)                 1.4361         calculate D2E/DX2 analytically  !
 ! R18   R(9,11)                 1.4376         calculate D2E/DX2 analytically  !
 ! R19   R(10,18)                1.4133         calculate D2E/DX2 analytically  !
 ! R20   R(10,22)                1.43           calculate D2E/DX2 analytically  !
 ! R21   R(11,19)                1.4086         calculate D2E/DX2 analytically  !
 ! R22   R(11,23)                1.4333         calculate D2E/DX2 analytically  !
 ! R23   R(12,16)                1.4119         calculate D2E/DX2 analytically  !
 ! R24   R(12,18)                1.3819         calculate D2E/DX2 analytically  !
 ! R25   R(12,20)                1.5288         calculate D2E/DX2 analytically  !
 ! R26   R(13,17)                1.4075         calculate D2E/DX2 analytically  !
 ! R27   R(13,19)                1.386          calculate D2E/DX2 analytically  !
 ! R28   R(13,21)                1.5312         calculate D2E/DX2 analytically  !
 ! R29   R(14,26)                1.5362         calculate D2E/DX2 analytically  !
 ! R30   R(14,27)                1.5371         calculate D2E/DX2 analytically  !
 ! R31   R(14,28)                1.53           calculate D2E/DX2 analytically  !
 ! R32   R(15,29)                1.5365         calculate D2E/DX2 analytically  !
 ! R33   R(15,30)                1.53           calculate D2E/DX2 analytically  !
 ! R34   R(15,31)                1.5372         calculate D2E/DX2 analytically  !
 ! R35   R(16,42)                1.0855         calculate D2E/DX2 analytically  !
 ! R36   R(17,43)                1.0831         calculate D2E/DX2 analytically  !
 ! R37   R(18,44)                1.0875         calculate D2E/DX2 analytically  !
 ! R38   R(19,45)                1.0898         calculate D2E/DX2 analytically  !
 ! R39   R(20,32)                1.5275         calculate D2E/DX2 analytically  !
 ! R40   R(20,33)                1.535          calculate D2E/DX2 analytically  !
 ! R41   R(20,34)                1.5348         calculate D2E/DX2 analytically  !
 ! R42   R(21,35)                1.5347         calculate D2E/DX2 analytically  !
 ! R43   R(21,36)                1.5347         calculate D2E/DX2 analytically  !
 ! R44   R(21,37)                1.5283         calculate D2E/DX2 analytically  !
 ! R45   R(22,46)                1.0945         calculate D2E/DX2 analytically  !
 ! R46   R(23,47)                1.0913         calculate D2E/DX2 analytically  !
 ! R47   R(24,25)                1.5286         calculate D2E/DX2 analytically  !
 ! R48   R(24,38)                1.5305         calculate D2E/DX2 analytically  !
 ! R49   R(24,48)                1.0994         calculate D2E/DX2 analytically  !
 ! R50   R(25,39)                1.5251         calculate D2E/DX2 analytically  !
 ! R51   R(25,49)                1.0985         calculate D2E/DX2 analytically  !
 ! R52   R(26,50)                1.0964         calculate D2E/DX2 analytically  !
 ! R53   R(26,51)                1.0899         calculate D2E/DX2 analytically  !
 ! R54   R(26,52)                1.0961         calculate D2E/DX2 analytically  !
 ! R55   R(27,53)                1.0957         calculate D2E/DX2 analytically  !
 ! R56   R(27,54)                1.0911         calculate D2E/DX2 analytically  !
 ! R57   R(27,55)                1.0963         calculate D2E/DX2 analytically  !
 ! R58   R(28,56)                1.0947         calculate D2E/DX2 analytically  !
 ! R59   R(28,57)                1.095          calculate D2E/DX2 analytically  !
 ! R60   R(28,58)                1.0948         calculate D2E/DX2 analytically  !
 ! R61   R(29,59)                1.0965         calculate D2E/DX2 analytically  !
 ! R62   R(29,60)                1.0901         calculate D2E/DX2 analytically  !
 ! R63   R(29,61)                1.096          calculate D2E/DX2 analytically  !
 ! R64   R(30,62)                1.0948         calculate D2E/DX2 analytically  !
 ! R65   R(30,63)                1.095          calculate D2E/DX2 analytically  !
 ! R66   R(30,64)                1.0947         calculate D2E/DX2 analytically  !
 ! R67   R(31,65)                1.0958         calculate D2E/DX2 analytically  !
 ! R68   R(31,66)                1.0912         calculate D2E/DX2 analytically  !
 ! R69   R(31,67)                1.0964         calculate D2E/DX2 analytically  !
 ! R70   R(32,68)                1.0945         calculate D2E/DX2 analytically  !
 ! R71   R(32,69)                1.0946         calculate D2E/DX2 analytically  !
 ! R72   R(32,70)                1.0946         calculate D2E/DX2 analytically  !
 ! R73   R(33,71)                1.0957         calculate D2E/DX2 analytically  !
 ! R74   R(33,72)                1.095          calculate D2E/DX2 analytically  !
 ! R75   R(33,73)                1.0941         calculate D2E/DX2 analytically  !
 ! R76   R(34,74)                1.0941         calculate D2E/DX2 analytically  !
 ! R77   R(34,75)                1.095          calculate D2E/DX2 analytically  !
 ! R78   R(34,76)                1.0957         calculate D2E/DX2 analytically  !
 ! R79   R(35,77)                1.0958         calculate D2E/DX2 analytically  !
 ! R80   R(35,78)                1.094          calculate D2E/DX2 analytically  !
 ! R81   R(35,79)                1.095          calculate D2E/DX2 analytically  !
 ! R82   R(36,80)                1.095          calculate D2E/DX2 analytically  !
 ! R83   R(36,81)                1.0941         calculate D2E/DX2 analytically  !
 ! R84   R(36,82)                1.0958         calculate D2E/DX2 analytically  !
 ! R85   R(37,83)                1.0946         calculate D2E/DX2 analytically  !
 ! R86   R(37,84)                1.0946         calculate D2E/DX2 analytically  !
 ! R87   R(37,85)                1.0946         calculate D2E/DX2 analytically  !
 ! R88   R(38,40)                1.5215         calculate D2E/DX2 analytically  !
 ! R89   R(38,86)                1.0993         calculate D2E/DX2 analytically  !
 ! R90   R(38,87)                1.0957         calculate D2E/DX2 analytically  !
 ! R91   R(39,41)                1.5227         calculate D2E/DX2 analytically  !
 ! R92   R(39,88)                1.0979         calculate D2E/DX2 analytically  !
 ! R93   R(39,89)                1.0937         calculate D2E/DX2 analytically  !
 ! R94   R(40,41)                1.5232         calculate D2E/DX2 analytically  !
 ! R95   R(40,90)                1.0949         calculate D2E/DX2 analytically  !
 ! R96   R(40,91)                1.0991         calculate D2E/DX2 analytically  !
 ! R97   R(41,92)                1.0949         calculate D2E/DX2 analytically  !
 ! R98   R(41,93)                1.0984         calculate D2E/DX2 analytically  !
 ! A1    A(2,1,3)               85.5694         calculate D2E/DX2 analytically  !
 ! A2    A(2,1,4)               93.3469         calculate D2E/DX2 analytically  !
 ! A3    A(3,1,5)               94.0801         calculate D2E/DX2 analytically  !
 ! A4    A(4,1,5)               87.5391         calculate D2E/DX2 analytically  !
 ! A5    A(1,2,8)              128.4491         calculate D2E/DX2 analytically  !
 ! A6    A(1,3,9)              128.2838         calculate D2E/DX2 analytically  !
 ! A7    A(1,4,22)             128.5671         calculate D2E/DX2 analytically  !
 ! A8    A(1,4,24)             113.042          calculate D2E/DX2 analytically  !
 ! A9    A(22,4,24)            118.003          calculate D2E/DX2 analytically  !
 ! A10   A(1,5,23)             127.3633         calculate D2E/DX2 analytically  !
 ! A11   A(1,5,25)             112.4768         calculate D2E/DX2 analytically  !
 ! A12   A(23,5,25)            119.7678         calculate D2E/DX2 analytically  !
 ! A13   A(8,6,14)             119.8945         calculate D2E/DX2 analytically  !
 ! A14   A(8,6,16)             118.8242         calculate D2E/DX2 analytically  !
 ! A15   A(14,6,16)            121.2676         calculate D2E/DX2 analytically  !
 ! A16   A(9,7,15)             119.7709         calculate D2E/DX2 analytically  !
 ! A17   A(9,7,17)             119.051          calculate D2E/DX2 analytically  !
 ! A18   A(15,7,17)            121.164          calculate D2E/DX2 analytically  !
 ! A19   A(2,8,6)              119.8012         calculate D2E/DX2 analytically  !
 ! A20   A(2,8,10)             122.6643         calculate D2E/DX2 analytically  !
 ! A21   A(6,8,10)             117.5345         calculate D2E/DX2 analytically  !
 ! A22   A(3,9,7)              120.0287         calculate D2E/DX2 analytically  !
 ! A23   A(3,9,11)             122.3737         calculate D2E/DX2 analytically  !
 ! A24   A(7,9,11)             117.5974         calculate D2E/DX2 analytically  !
 ! A25   A(8,10,18)            120.3456         calculate D2E/DX2 analytically  !
 ! A26   A(8,10,22)            121.7549         calculate D2E/DX2 analytically  !
 ! A27   A(18,10,22)           117.8985         calculate D2E/DX2 analytically  !
 ! A28   A(9,11,19)            120.0468         calculate D2E/DX2 analytically  !
 ! A29   A(9,11,23)            122.2785         calculate D2E/DX2 analytically  !
 ! A30   A(19,11,23)           117.6737         calculate D2E/DX2 analytically  !
 ! A31   A(16,12,18)           116.7564         calculate D2E/DX2 analytically  !
 ! A32   A(16,12,20)           119.5061         calculate D2E/DX2 analytically  !
 ! A33   A(18,12,20)           123.7357         calculate D2E/DX2 analytically  !
 ! A34   A(17,13,19)           116.639          calculate D2E/DX2 analytically  !
 ! A35   A(17,13,21)           123.0824         calculate D2E/DX2 analytically  !
 ! A36   A(19,13,21)           120.2776         calculate D2E/DX2 analytically  !
 ! A37   A(6,14,26)            110.8089         calculate D2E/DX2 analytically  !
 ! A38   A(6,14,27)            109.4325         calculate D2E/DX2 analytically  !
 ! A39   A(6,14,28)            112.2789         calculate D2E/DX2 analytically  !
 ! A40   A(26,14,27)           109.3965         calculate D2E/DX2 analytically  !
 ! A41   A(26,14,28)           107.4053         calculate D2E/DX2 analytically  !
 ! A42   A(27,14,28)           107.4182         calculate D2E/DX2 analytically  !
 ! A43   A(7,15,29)            110.7724         calculate D2E/DX2 analytically  !
 ! A44   A(7,15,30)            112.3749         calculate D2E/DX2 analytically  !
 ! A45   A(7,15,31)            109.4173         calculate D2E/DX2 analytically  !
 ! A46   A(29,15,30)           107.3715         calculate D2E/DX2 analytically  !
 ! A47   A(29,15,31)           109.3973         calculate D2E/DX2 analytically  !
 ! A48   A(30,15,31)           107.4062         calculate D2E/DX2 analytically  !
 ! A49   A(6,16,12)            124.2099         calculate D2E/DX2 analytically  !
 ! A50   A(6,16,42)            118.3935         calculate D2E/DX2 analytically  !
 ! A51   A(12,16,42)           117.3961         calculate D2E/DX2 analytically  !
 ! A52   A(7,17,13)            123.9564         calculate D2E/DX2 analytically  !
 ! A53   A(7,17,43)            117.9846         calculate D2E/DX2 analytically  !
 ! A54   A(13,17,43)           118.0588         calculate D2E/DX2 analytically  !
 ! A55   A(10,18,12)           122.285          calculate D2E/DX2 analytically  !
 ! A56   A(10,18,44)           117.038          calculate D2E/DX2 analytically  !
 ! A57   A(12,18,44)           120.677          calculate D2E/DX2 analytically  !
 ! A58   A(11,19,13)           122.6693         calculate D2E/DX2 analytically  !
 ! A59   A(11,19,45)           117.3054         calculate D2E/DX2 analytically  !
 ! A60   A(13,19,45)           120.0251         calculate D2E/DX2 analytically  !
 ! A61   A(12,20,32)           112.0681         calculate D2E/DX2 analytically  !
 ! A62   A(12,20,33)           109.7323         calculate D2E/DX2 analytically  !
 ! A63   A(12,20,34)           109.6534         calculate D2E/DX2 analytically  !
 ! A64   A(32,20,33)           108.2703         calculate D2E/DX2 analytically  !
 ! A65   A(32,20,34)           108.2973         calculate D2E/DX2 analytically  !
 ! A66   A(33,20,34)           108.7463         calculate D2E/DX2 analytically  !
 ! A67   A(13,21,35)           109.7014         calculate D2E/DX2 analytically  !
 ! A68   A(13,21,36)           109.6335         calculate D2E/DX2 analytically  !
 ! A69   A(13,21,37)           112.3485         calculate D2E/DX2 analytically  !
 ! A70   A(35,21,36)           108.7117         calculate D2E/DX2 analytically  !
 ! A71   A(35,21,37)           108.1702         calculate D2E/DX2 analytically  !
 ! A72   A(36,21,37)           108.1929         calculate D2E/DX2 analytically  !
 ! A73   A(4,22,10)            124.9239         calculate D2E/DX2 analytically  !
 ! A74   A(4,22,46)            118.0557         calculate D2E/DX2 analytically  !
 ! A75   A(10,22,46)           117.0202         calculate D2E/DX2 analytically  !
 ! A76   A(5,23,11)            125.2547         calculate D2E/DX2 analytically  !
 ! A77   A(5,23,47)            119.0508         calculate D2E/DX2 analytically  !
 ! A78   A(11,23,47)           115.6945         calculate D2E/DX2 analytically  !
 ! A79   A(4,24,25)            106.1064         calculate D2E/DX2 analytically  !
 ! A80   A(4,24,38)            109.817          calculate D2E/DX2 analytically  !
 ! A81   A(4,24,48)            110.2663         calculate D2E/DX2 analytically  !
 ! A82   A(25,24,38)           111.8555         calculate D2E/DX2 analytically  !
 ! A83   A(25,24,48)           109.4322         calculate D2E/DX2 analytically  !
 ! A84   A(38,24,48)           109.3246         calculate D2E/DX2 analytically  !
 ! A85   A(5,25,24)            105.1402         calculate D2E/DX2 analytically  !
 ! A86   A(5,25,39)            117.5648         calculate D2E/DX2 analytically  !
 ! A87   A(5,25,49)            105.7621         calculate D2E/DX2 analytically  !
 ! A88   A(24,25,39)           111.711          calculate D2E/DX2 analytically  !
 ! A89   A(24,25,49)           107.6025         calculate D2E/DX2 analytically  !
 ! A90   A(39,25,49)           108.5178         calculate D2E/DX2 analytically  !
 ! A91   A(14,26,50)           110.1656         calculate D2E/DX2 analytically  !
 ! A92   A(14,26,51)           111.0647         calculate D2E/DX2 analytically  !
 ! A93   A(14,26,52)           110.906          calculate D2E/DX2 analytically  !
 ! A94   A(50,26,51)           108.7027         calculate D2E/DX2 analytically  !
 ! A95   A(50,26,52)           107.4219         calculate D2E/DX2 analytically  !
 ! A96   A(51,26,52)           108.4733         calculate D2E/DX2 analytically  !
 ! A97   A(14,27,53)           110.7696         calculate D2E/DX2 analytically  !
 ! A98   A(14,27,54)           111.1987         calculate D2E/DX2 analytically  !
 ! A99   A(14,27,55)           110.4761         calculate D2E/DX2 analytically  !
 ! A100  A(53,27,54)           108.4193         calculate D2E/DX2 analytically  !
 ! A101  A(53,27,55)           107.5164         calculate D2E/DX2 analytically  !
 ! A102  A(54,27,55)           108.3417         calculate D2E/DX2 analytically  !
 ! A103  A(14,28,56)           109.3566         calculate D2E/DX2 analytically  !
 ! A104  A(14,28,57)           112.3018         calculate D2E/DX2 analytically  !
 ! A105  A(14,28,58)           112.4174         calculate D2E/DX2 analytically  !
 ! A106  A(56,28,57)           107.3391         calculate D2E/DX2 analytically  !
 ! A107  A(56,28,58)           107.2949         calculate D2E/DX2 analytically  !
 ! A108  A(57,28,58)           107.8856         calculate D2E/DX2 analytically  !
 ! A109  A(15,29,59)           110.1983         calculate D2E/DX2 analytically  !
 ! A110  A(15,29,60)           111.0408         calculate D2E/DX2 analytically  !
 ! A111  A(15,29,61)           110.9069         calculate D2E/DX2 analytically  !
 ! A112  A(59,29,60)           108.675          calculate D2E/DX2 analytically  !
 ! A113  A(59,29,61)           107.427          calculate D2E/DX2 analytically  !
 ! A114  A(60,29,61)           108.4863         calculate D2E/DX2 analytically  !
 ! A115  A(15,30,62)           109.3489         calculate D2E/DX2 analytically  !
 ! A116  A(15,30,63)           112.3156         calculate D2E/DX2 analytically  !
 ! A117  A(15,30,64)           112.435          calculate D2E/DX2 analytically  !
 ! A118  A(62,30,63)           107.3209         calculate D2E/DX2 analytically  !
 ! A119  A(62,30,64)           107.2875         calculate D2E/DX2 analytically  !
 ! A120  A(63,30,64)           107.8852         calculate D2E/DX2 analytically  !
 ! A121  A(15,31,65)           110.7336         calculate D2E/DX2 analytically  !
 ! A122  A(15,31,66)           111.2023         calculate D2E/DX2 analytically  !
 ! A123  A(15,31,67)           110.5134         calculate D2E/DX2 analytically  !
 ! A124  A(65,31,66)           108.415          calculate D2E/DX2 analytically  !
 ! A125  A(65,31,67)           107.4982         calculate D2E/DX2 analytically  !
 ! A126  A(66,31,67)           108.3589         calculate D2E/DX2 analytically  !
 ! A127  A(20,32,68)           109.9465         calculate D2E/DX2 analytically  !
 ! A128  A(20,32,69)           111.9738         calculate D2E/DX2 analytically  !
 ! A129  A(20,32,70)           111.9655         calculate D2E/DX2 analytically  !
 ! A130  A(68,32,69)           107.4597         calculate D2E/DX2 analytically  !
 ! A131  A(68,32,70)           107.4511         calculate D2E/DX2 analytically  !
 ! A132  A(69,32,70)           107.8333         calculate D2E/DX2 analytically  !
 ! A133  A(20,33,71)           110.7387         calculate D2E/DX2 analytically  !
 ! A134  A(20,33,72)           111.1887         calculate D2E/DX2 analytically  !
 ! A135  A(20,33,73)           111.7723         calculate D2E/DX2 analytically  !
 ! A136  A(71,33,72)           107.7654         calculate D2E/DX2 analytically  !
 ! A137  A(71,33,73)           107.4931         calculate D2E/DX2 analytically  !
 ! A138  A(72,33,73)           107.6996         calculate D2E/DX2 analytically  !
 ! A139  A(20,34,74)           111.7417         calculate D2E/DX2 analytically  !
 ! A140  A(20,34,75)           111.1878         calculate D2E/DX2 analytically  !
 ! A141  A(20,34,76)           110.7569         calculate D2E/DX2 analytically  !
 ! A142  A(74,34,75)           107.6854         calculate D2E/DX2 analytically  !
 ! A143  A(74,34,76)           107.5175         calculate D2E/DX2 analytically  !
 ! A144  A(75,34,76)           107.7697         calculate D2E/DX2 analytically  !
 ! A145  A(21,35,77)           110.8051         calculate D2E/DX2 analytically  !
 ! A146  A(21,35,78)           111.6691         calculate D2E/DX2 analytically  !
 ! A147  A(21,35,79)           111.1915         calculate D2E/DX2 analytically  !
 ! A148  A(77,35,78)           107.548          calculate D2E/DX2 analytically  !
 ! A149  A(77,35,79)           107.7634         calculate D2E/DX2 analytically  !
 ! A150  A(78,35,79)           107.6834         calculate D2E/DX2 analytically  !
 ! A151  A(21,36,80)           111.2068         calculate D2E/DX2 analytically  !
 ! A152  A(21,36,81)           111.6474         calculate D2E/DX2 analytically  !
 ! A153  A(21,36,82)           110.809          calculate D2E/DX2 analytically  !
 ! A154  A(80,36,81)           107.6837         calculate D2E/DX2 analytically  !
 ! A155  A(80,36,82)           107.7599         calculate D2E/DX2 analytically  !
 ! A156  A(81,36,82)           107.5539         calculate D2E/DX2 analytically  !
 ! A157  A(21,37,83)           109.8341         calculate D2E/DX2 analytically  !
 ! A158  A(21,37,84)           112.0749         calculate D2E/DX2 analytically  !
 ! A159  A(21,37,85)           112.0773         calculate D2E/DX2 analytically  !
 ! A160  A(83,37,84)           107.3885         calculate D2E/DX2 analytically  !
 ! A161  A(83,37,85)           107.4049         calculate D2E/DX2 analytically  !
 ! A162  A(84,37,85)           107.839          calculate D2E/DX2 analytically  !
 ! A163  A(24,38,40)           112.4256         calculate D2E/DX2 analytically  !
 ! A164  A(24,38,86)           107.6452         calculate D2E/DX2 analytically  !
 ! A165  A(24,38,87)           108.9375         calculate D2E/DX2 analytically  !
 ! A166  A(40,38,86)           109.6243         calculate D2E/DX2 analytically  !
 ! A167  A(40,38,87)           111.389          calculate D2E/DX2 analytically  !
 ! A168  A(86,38,87)           106.5837         calculate D2E/DX2 analytically  !
 ! A169  A(25,39,41)           113.1092         calculate D2E/DX2 analytically  !
 ! A170  A(25,39,88)           106.5577         calculate D2E/DX2 analytically  !
 ! A171  A(25,39,89)           110.8114         calculate D2E/DX2 analytically  !
 ! A172  A(41,39,88)           108.9212         calculate D2E/DX2 analytically  !
 ! A173  A(41,39,89)           111.6083         calculate D2E/DX2 analytically  !
 ! A174  A(88,39,89)           105.3921         calculate D2E/DX2 analytically  !
 ! A175  A(38,40,41)           110.5666         calculate D2E/DX2 analytically  !
 ! A176  A(38,40,90)           109.9513         calculate D2E/DX2 analytically  !
 ! A177  A(38,40,91)           109.7653         calculate D2E/DX2 analytically  !
 ! A178  A(41,40,90)           110.8057         calculate D2E/DX2 analytically  !
 ! A179  A(41,40,91)           109.2505         calculate D2E/DX2 analytically  !
 ! A180  A(90,40,91)           106.4101         calculate D2E/DX2 analytically  !
 ! A181  A(39,41,40)           110.2906         calculate D2E/DX2 analytically  !
 ! A182  A(39,41,92)           109.9459         calculate D2E/DX2 analytically  !
 ! A183  A(39,41,93)           109.9173         calculate D2E/DX2 analytically  !
 ! A184  A(40,41,92)           110.7688         calculate D2E/DX2 analytically  !
 ! A185  A(40,41,93)           109.4032         calculate D2E/DX2 analytically  !
 ! A186  A(92,41,93)           106.4402         calculate D2E/DX2 analytically  !
 ! A187  L(2,1,5,4,-1)         180.8861         calculate D2E/DX2 analytically  !
 ! A188  L(3,1,4,5,-1)         181.6192         calculate D2E/DX2 analytically  !
 ! A189  L(2,1,5,4,-2)         185.6099         calculate D2E/DX2 analytically  !
 ! A190  L(3,1,4,5,-2)         185.3719         calculate D2E/DX2 analytically  !
 ! D1    D(3,1,2,8)            179.2388         calculate D2E/DX2 analytically  !
 ! D2    D(4,1,2,8)              4.7478         calculate D2E/DX2 analytically  !
 ! D3    D(2,1,3,9)            179.8909         calculate D2E/DX2 analytically  !
 ! D4    D(5,1,3,9)              5.568          calculate D2E/DX2 analytically  !
 ! D5    D(2,1,4,22)             0.2072         calculate D2E/DX2 analytically  !
 ! D6    D(2,1,4,24)           172.824          calculate D2E/DX2 analytically  !
 ! D7    D(5,1,4,22)           174.5973         calculate D2E/DX2 analytically  !
 ! D8    D(5,1,4,24)           -12.7859         calculate D2E/DX2 analytically  !
 ! D9    D(3,1,5,23)            -0.2161         calculate D2E/DX2 analytically  !
 ! D10   D(3,1,5,25)           172.4992         calculate D2E/DX2 analytically  !
 ! D11   D(4,1,5,23)           174.412          calculate D2E/DX2 analytically  !
 ! D12   D(4,1,5,25)           -12.8727         calculate D2E/DX2 analytically  !
 ! D13   D(1,2,8,6)            173.9072         calculate D2E/DX2 analytically  !
 ! D14   D(1,2,8,10)            -6.1802         calculate D2E/DX2 analytically  !
 ! D15   D(1,3,9,7)            173.2724         calculate D2E/DX2 analytically  !
 ! D16   D(1,3,9,11)            -6.8704         calculate D2E/DX2 analytically  !
 ! D17   D(1,4,22,10)           -3.6765         calculate D2E/DX2 analytically  !
 ! D18   D(1,4,22,46)          176.4835         calculate D2E/DX2 analytically  !
 ! D19   D(24,4,22,10)        -175.9796         calculate D2E/DX2 analytically  !
 ! D20   D(24,4,22,46)           4.1804         calculate D2E/DX2 analytically  !
 ! D21   D(1,4,24,25)           33.8428         calculate D2E/DX2 analytically  !
 ! D22   D(1,4,24,38)          -87.2163         calculate D2E/DX2 analytically  !
 ! D23   D(1,4,24,48)          152.2515         calculate D2E/DX2 analytically  !
 ! D24   D(22,4,24,25)        -152.6915         calculate D2E/DX2 analytically  !
 ! D25   D(22,4,24,38)          86.2494         calculate D2E/DX2 analytically  !
 ! D26   D(22,4,24,48)         -34.2828         calculate D2E/DX2 analytically  !
 ! D27   D(1,5,23,11)           -3.7361         calculate D2E/DX2 analytically  !
 ! D28   D(1,5,23,47)          176.3223         calculate D2E/DX2 analytically  !
 ! D29   D(25,5,23,11)        -175.9787         calculate D2E/DX2 analytically  !
 ! D30   D(25,5,23,47)           4.0797         calculate D2E/DX2 analytically  !
 ! D31   D(1,5,25,24)           33.4385         calculate D2E/DX2 analytically  !
 ! D32   D(1,5,25,39)          158.4359         calculate D2E/DX2 analytically  !
 ! D33   D(1,5,25,49)          -80.2584         calculate D2E/DX2 analytically  !
 ! D34   D(23,5,25,24)        -153.2287         calculate D2E/DX2 analytically  !
 ! D35   D(23,5,25,39)         -28.2313         calculate D2E/DX2 analytically  !
 ! D36   D(23,5,25,49)          93.0745         calculate D2E/DX2 analytically  !
 ! D37   D(14,6,8,2)            -3.6333         calculate D2E/DX2 analytically  !
 ! D38   D(14,6,8,10)          176.4496         calculate D2E/DX2 analytically  !
 ! D39   D(16,6,8,2)           177.6997         calculate D2E/DX2 analytically  !
 ! D40   D(16,6,8,10)           -2.2173         calculate D2E/DX2 analytically  !
 ! D41   D(8,6,14,26)           59.7785         calculate D2E/DX2 analytically  !
 ! D42   D(8,6,14,27)          -60.9397         calculate D2E/DX2 analytically  !
 ! D43   D(8,6,14,28)          179.8791         calculate D2E/DX2 analytically  !
 ! D44   D(16,6,14,26)        -121.5879         calculate D2E/DX2 analytically  !
 ! D45   D(16,6,14,27)         117.6939         calculate D2E/DX2 analytically  !
 ! D46   D(16,6,14,28)          -1.4873         calculate D2E/DX2 analytically  !
 ! D47   D(8,6,16,12)            0.7158         calculate D2E/DX2 analytically  !
 ! D48   D(8,6,16,42)         -179.5631         calculate D2E/DX2 analytically  !
 ! D49   D(14,6,16,12)        -177.9321         calculate D2E/DX2 analytically  !
 ! D50   D(14,6,16,42)           1.789          calculate D2E/DX2 analytically  !
 ! D51   D(15,7,9,3)            -3.5189         calculate D2E/DX2 analytically  !
 ! D52   D(15,7,9,11)          176.6172         calculate D2E/DX2 analytically  !
 ! D53   D(17,7,9,3)           177.8319         calculate D2E/DX2 analytically  !
 ! D54   D(17,7,9,11)           -2.032          calculate D2E/DX2 analytically  !
 ! D55   D(9,7,15,29)           59.712          calculate D2E/DX2 analytically  !
 ! D56   D(9,7,15,30)          179.8092         calculate D2E/DX2 analytically  !
 ! D57   D(9,7,15,31)          -60.9741         calculate D2E/DX2 analytically  !
 ! D58   D(17,7,15,29)        -121.668          calculate D2E/DX2 analytically  !
 ! D59   D(17,7,15,30)          -1.5708         calculate D2E/DX2 analytically  !
 ! D60   D(17,7,15,31)         117.6459         calculate D2E/DX2 analytically  !
 ! D61   D(9,7,17,13)            0.5341         calculate D2E/DX2 analytically  !
 ! D62   D(9,7,17,43)         -179.62           calculate D2E/DX2 analytically  !
 ! D63   D(15,7,17,13)        -178.0956         calculate D2E/DX2 analytically  !
 ! D64   D(15,7,17,43)           1.7503         calculate D2E/DX2 analytically  !
 ! D65   D(2,8,10,18)         -177.6337         calculate D2E/DX2 analytically  !
 ! D66   D(2,8,10,22)            1.9921         calculate D2E/DX2 analytically  !
 ! D67   D(6,8,10,18)            2.2808         calculate D2E/DX2 analytically  !
 ! D68   D(6,8,10,22)         -178.0934         calculate D2E/DX2 analytically  !
 ! D69   D(3,9,11,19)         -177.627          calculate D2E/DX2 analytically  !
 ! D70   D(3,9,11,23)            2.0029         calculate D2E/DX2 analytically  !
 ! D71   D(7,9,11,19)            2.2335         calculate D2E/DX2 analytically  !
 ! D72   D(7,9,11,23)         -178.1366         calculate D2E/DX2 analytically  !
 ! D73   D(8,10,18,12)          -0.7946         calculate D2E/DX2 analytically  !
 ! D74   D(8,10,18,44)         179.2741         calculate D2E/DX2 analytically  !
 ! D75   D(22,10,18,12)        179.5654         calculate D2E/DX2 analytically  !
 ! D76   D(22,10,18,44)         -0.3659         calculate D2E/DX2 analytically  !
 ! D77   D(8,10,22,4)            3.0824         calculate D2E/DX2 analytically  !
 ! D78   D(8,10,22,46)        -177.0761         calculate D2E/DX2 analytically  !
 ! D79   D(18,10,22,4)        -177.283          calculate D2E/DX2 analytically  !
 ! D80   D(18,10,22,46)          2.5585         calculate D2E/DX2 analytically  !
 ! D81   D(9,11,19,13)          -0.921          calculate D2E/DX2 analytically  !
 ! D82   D(9,11,19,45)         179.2705         calculate D2E/DX2 analytically  !
 ! D83   D(23,11,19,13)        179.4324         calculate D2E/DX2 analytically  !
 ! D84   D(23,11,19,45)         -0.3762         calculate D2E/DX2 analytically  !
 ! D85   D(9,11,23,5)            3.5175         calculate D2E/DX2 analytically  !
 ! D86   D(9,11,23,47)        -176.5392         calculate D2E/DX2 analytically  !
 ! D87   D(19,11,23,5)        -176.8442         calculate D2E/DX2 analytically  !
 ! D88   D(19,11,23,47)          3.0991         calculate D2E/DX2 analytically  !
 ! D89   D(18,12,16,6)           0.8071         calculate D2E/DX2 analytically  !
 ! D90   D(18,12,16,42)       -178.9166         calculate D2E/DX2 analytically  !
 ! D91   D(20,12,16,6)        -179.6571         calculate D2E/DX2 analytically  !
 ! D92   D(20,12,16,42)          0.6192         calculate D2E/DX2 analytically  !
 ! D93   D(16,12,18,10)         -0.7608         calculate D2E/DX2 analytically  !
 ! D94   D(16,12,18,44)        179.1681         calculate D2E/DX2 analytically  !
 ! D95   D(20,12,18,10)        179.7249         calculate D2E/DX2 analytically  !
 ! D96   D(20,12,18,44)         -0.3462         calculate D2E/DX2 analytically  !
 ! D97   D(16,12,20,32)       -179.7408         calculate D2E/DX2 analytically  !
 ! D98   D(16,12,20,33)        -59.4226         calculate D2E/DX2 analytically  !
 ! D99   D(16,12,20,34)         59.9606         calculate D2E/DX2 analytically  !
 ! D100  D(18,12,20,32)         -0.2392         calculate D2E/DX2 analytically  !
 ! D101  D(18,12,20,33)        120.079          calculate D2E/DX2 analytically  !
 ! D102  D(18,12,20,34)       -120.5378         calculate D2E/DX2 analytically  !
 ! D103  D(19,13,17,7)           0.8197         calculate D2E/DX2 analytically  !
 ! D104  D(19,13,17,43)       -179.0261         calculate D2E/DX2 analytically  !
 ! D105  D(21,13,17,7)        -179.5576         calculate D2E/DX2 analytically  !
 ! D106  D(21,13,17,43)          0.5966         calculate D2E/DX2 analytically  !
 ! D107  D(17,13,19,11)         -0.6168         calculate D2E/DX2 analytically  !
 ! D108  D(17,13,19,45)        179.1867         calculate D2E/DX2 analytically  !
 ! D109  D(21,13,19,11)        179.7493         calculate D2E/DX2 analytically  !
 ! D110  D(21,13,19,45)         -0.4472         calculate D2E/DX2 analytically  !
 ! D111  D(17,13,21,35)       -120.3535         calculate D2E/DX2 analytically  !
 ! D112  D(17,13,21,36)        120.3369         calculate D2E/DX2 analytically  !
 ! D113  D(17,13,21,37)          0.0006         calculate D2E/DX2 analytically  !
 ! D114  D(19,13,21,35)         59.256          calculate D2E/DX2 analytically  !
 ! D115  D(19,13,21,36)        -60.0537         calculate D2E/DX2 analytically  !
 ! D116  D(19,13,21,37)        179.6101         calculate D2E/DX2 analytically  !
 ! D117  D(6,14,26,50)         178.7195         calculate D2E/DX2 analytically  !
 ! D118  D(6,14,26,51)         -60.7824         calculate D2E/DX2 analytically  !
 ! D119  D(6,14,26,52)          59.9219         calculate D2E/DX2 analytically  !
 ! D120  D(27,14,26,50)        -60.541          calculate D2E/DX2 analytically  !
 ! D121  D(27,14,26,51)         59.9571         calculate D2E/DX2 analytically  !
 ! D122  D(27,14,26,52)       -179.3386         calculate D2E/DX2 analytically  !
 ! D123  D(28,14,26,50)         55.7517         calculate D2E/DX2 analytically  !
 ! D124  D(28,14,26,51)        176.2497         calculate D2E/DX2 analytically  !
 ! D125  D(28,14,26,52)        -63.0459         calculate D2E/DX2 analytically  !
 ! D126  D(6,14,27,53)         -62.118          calculate D2E/DX2 analytically  !
 ! D127  D(6,14,27,54)          58.5158         calculate D2E/DX2 analytically  !
 ! D128  D(6,14,27,55)         178.8547         calculate D2E/DX2 analytically  !
 ! D129  D(26,14,27,53)        176.3084         calculate D2E/DX2 analytically  !
 ! D130  D(26,14,27,54)        -63.0578         calculate D2E/DX2 analytically  !
 ! D131  D(26,14,27,55)         57.2811         calculate D2E/DX2 analytically  !
 ! D132  D(28,14,27,53)         60.0239         calculate D2E/DX2 analytically  !
 ! D133  D(28,14,27,54)       -179.3422         calculate D2E/DX2 analytically  !
 ! D134  D(28,14,27,55)        -59.0033         calculate D2E/DX2 analytically  !
 ! D135  D(6,14,28,56)         179.6575         calculate D2E/DX2 analytically  !
 ! D136  D(6,14,28,57)         -61.2962         calculate D2E/DX2 analytically  !
 ! D137  D(6,14,28,58)          60.5937         calculate D2E/DX2 analytically  !
 ! D138  D(26,14,28,56)        -58.2852         calculate D2E/DX2 analytically  !
 ! D139  D(26,14,28,57)         60.761          calculate D2E/DX2 analytically  !
 ! D140  D(26,14,28,58)       -177.349          calculate D2E/DX2 analytically  !
 ! D141  D(27,14,28,56)         59.303          calculate D2E/DX2 analytically  !
 ! D142  D(27,14,28,57)        178.3492         calculate D2E/DX2 analytically  !
 ! D143  D(27,14,28,58)        -59.7609         calculate D2E/DX2 analytically  !
 ! D144  D(7,15,29,59)         178.9309         calculate D2E/DX2 analytically  !
 ! D145  D(7,15,29,60)         -60.5998         calculate D2E/DX2 analytically  !
 ! D146  D(7,15,29,61)          60.1055         calculate D2E/DX2 analytically  !
 ! D147  D(30,15,29,59)         55.8892         calculate D2E/DX2 analytically  !
 ! D148  D(30,15,29,60)        176.3586         calculate D2E/DX2 analytically  !
 ! D149  D(30,15,29,61)        -62.9362         calculate D2E/DX2 analytically  !
 ! D150  D(31,15,29,59)        -60.3712         calculate D2E/DX2 analytically  !
 ! D151  D(31,15,29,60)         60.0982         calculate D2E/DX2 analytically  !
 ! D152  D(31,15,29,61)       -179.1966         calculate D2E/DX2 analytically  !
 ! D153  D(7,15,30,62)         179.688          calculate D2E/DX2 analytically  !
 ! D154  D(7,15,30,63)         -61.2851         calculate D2E/DX2 analytically  !
 ! D155  D(7,15,30,64)          60.6275         calculate D2E/DX2 analytically  !
 ! D156  D(29,15,30,62)        -58.2633         calculate D2E/DX2 analytically  !
 ! D157  D(29,15,30,63)         60.7637         calculate D2E/DX2 analytically  !
 ! D158  D(29,15,30,64)       -177.3237         calculate D2E/DX2 analytically  !
 ! D159  D(31,15,30,62)         59.3022         calculate D2E/DX2 analytically  !
 ! D160  D(31,15,30,63)        178.3292         calculate D2E/DX2 analytically  !
 ! D161  D(31,15,30,64)        -59.7583         calculate D2E/DX2 analytically  !
 ! D162  D(7,15,31,65)         -62.4725         calculate D2E/DX2 analytically  !
 ! D163  D(7,15,31,66)          58.1341         calculate D2E/DX2 analytically  !
 ! D164  D(7,15,31,67)         178.5219         calculate D2E/DX2 analytically  !
 ! D165  D(29,15,31,65)        176.008          calculate D2E/DX2 analytically  !
 ! D166  D(29,15,31,66)        -63.3854         calculate D2E/DX2 analytically  !
 ! D167  D(29,15,31,67)         57.0024         calculate D2E/DX2 analytically  !
 ! D168  D(30,15,31,65)         59.7697         calculate D2E/DX2 analytically  !
 ! D169  D(30,15,31,66)       -179.6238         calculate D2E/DX2 analytically  !
 ! D170  D(30,15,31,67)        -59.236          calculate D2E/DX2 analytically  !
 ! D171  D(12,20,32,68)       -179.9079         calculate D2E/DX2 analytically  !
 ! D172  D(12,20,32,69)        -60.5267         calculate D2E/DX2 analytically  !
 ! D173  D(12,20,32,70)         60.727          calculate D2E/DX2 analytically  !
 ! D174  D(33,20,32,68)         58.9273         calculate D2E/DX2 analytically  !
 ! D175  D(33,20,32,69)        178.3085         calculate D2E/DX2 analytically  !
 ! D176  D(33,20,32,70)        -60.4378         calculate D2E/DX2 analytically  !
 ! D177  D(34,20,32,68)        -58.8237         calculate D2E/DX2 analytically  !
 ! D178  D(34,20,32,69)         60.5575         calculate D2E/DX2 analytically  !
 ! D179  D(34,20,32,70)       -178.1888         calculate D2E/DX2 analytically  !
 ! D180  D(12,20,33,71)        179.526          calculate D2E/DX2 analytically  !
 ! D181  D(12,20,33,72)        -60.6924         calculate D2E/DX2 analytically  !
 ! D182  D(12,20,33,73)         59.7019         calculate D2E/DX2 analytically  !
 ! D183  D(32,20,33,71)        -57.8751         calculate D2E/DX2 analytically  !
 ! D184  D(32,20,33,72)         61.9065         calculate D2E/DX2 analytically  !
 ! D185  D(32,20,33,73)       -177.6992         calculate D2E/DX2 analytically  !
 ! D186  D(34,20,33,71)         59.5882         calculate D2E/DX2 analytically  !
 ! D187  D(34,20,33,72)        179.3698         calculate D2E/DX2 analytically  !
 ! D188  D(34,20,33,73)        -60.2359         calculate D2E/DX2 analytically  !
 ! D189  D(12,20,34,74)        -59.4815         calculate D2E/DX2 analytically  !
 ! D190  D(12,20,34,75)         60.8731         calculate D2E/DX2 analytically  !
 ! D191  D(12,20,34,76)       -179.3285         calculate D2E/DX2 analytically  !
 ! D192  D(32,20,34,74)        177.9515         calculate D2E/DX2 analytically  !
 ! D193  D(32,20,34,75)        -61.6939         calculate D2E/DX2 analytically  !
 ! D194  D(32,20,34,76)         58.1045         calculate D2E/DX2 analytically  !
 ! D195  D(33,20,34,74)         60.5053         calculate D2E/DX2 analytically  !
 ! D196  D(33,20,34,75)       -179.1401         calculate D2E/DX2 analytically  !
 ! D197  D(33,20,34,76)        -59.3416         calculate D2E/DX2 analytically  !
 ! D198  D(13,21,35,77)       -179.4955         calculate D2E/DX2 analytically  !
 ! D199  D(13,21,35,78)        -59.6256         calculate D2E/DX2 analytically  !
 ! D200  D(13,21,35,79)         60.6795         calculate D2E/DX2 analytically  !
 ! D201  D(36,21,35,77)        -59.6214         calculate D2E/DX2 analytically  !
 ! D202  D(36,21,35,78)         60.2484         calculate D2E/DX2 analytically  !
 ! D203  D(36,21,35,79)       -179.4465         calculate D2E/DX2 analytically  !
 ! D204  D(37,21,35,77)         57.6436         calculate D2E/DX2 analytically  !
 ! D205  D(37,21,35,78)        177.5134         calculate D2E/DX2 analytically  !
 ! D206  D(37,21,35,79)        -62.1815         calculate D2E/DX2 analytically  !
 ! D207  D(13,21,36,80)        -60.717          calculate D2E/DX2 analytically  !
 ! D208  D(13,21,36,81)         59.5842         calculate D2E/DX2 analytically  !
 ! D209  D(13,21,36,82)        179.4497         calculate D2E/DX2 analytically  !
 ! D210  D(35,21,36,80)        179.3668         calculate D2E/DX2 analytically  !
 ! D211  D(35,21,36,81)        -60.332          calculate D2E/DX2 analytically  !
 ! D212  D(35,21,36,82)         59.5334         calculate D2E/DX2 analytically  !
 ! D213  D(37,21,36,80)         62.1162         calculate D2E/DX2 analytically  !
 ! D214  D(37,21,36,81)       -177.5826         calculate D2E/DX2 analytically  !
 ! D215  D(37,21,36,82)        -57.7171         calculate D2E/DX2 analytically  !
 ! D216  D(13,21,37,83)        179.9122         calculate D2E/DX2 analytically  !
 ! D217  D(13,21,37,84)        -60.806          calculate D2E/DX2 analytically  !
 ! D218  D(13,21,37,85)         60.6083         calculate D2E/DX2 analytically  !
 ! D219  D(35,21,37,83)        -58.8523         calculate D2E/DX2 analytically  !
 ! D220  D(35,21,37,84)         60.4295         calculate D2E/DX2 analytically  !
 ! D221  D(35,21,37,85)       -178.1562         calculate D2E/DX2 analytically  !
 ! D222  D(36,21,37,83)         58.7463         calculate D2E/DX2 analytically  !
 ! D223  D(36,21,37,84)        178.0281         calculate D2E/DX2 analytically  !
 ! D224  D(36,21,37,85)        -60.5576         calculate D2E/DX2 analytically  !
 ! D225  D(4,24,25,5)          -41.2483         calculate D2E/DX2 analytically  !
 ! D226  D(4,24,25,39)        -169.8373         calculate D2E/DX2 analytically  !
 ! D227  D(4,24,25,49)          71.1522         calculate D2E/DX2 analytically  !
 ! D228  D(38,24,25,5)          78.4882         calculate D2E/DX2 analytically  !
 ! D229  D(38,24,25,39)        -50.1008         calculate D2E/DX2 analytically  !
 ! D230  D(38,24,25,49)       -169.1113         calculate D2E/DX2 analytically  !
 ! D231  D(48,24,25,5)        -160.2073         calculate D2E/DX2 analytically  !
 ! D232  D(48,24,25,39)         71.2037         calculate D2E/DX2 analytically  !
 ! D233  D(48,24,25,49)        -47.8068         calculate D2E/DX2 analytically  !
 ! D234  D(4,24,38,40)         170.5485         calculate D2E/DX2 analytically  !
 ! D235  D(4,24,38,86)          49.7155         calculate D2E/DX2 analytically  !
 ! D236  D(4,24,38,87)         -65.4849         calculate D2E/DX2 analytically  !
 ! D237  D(25,24,38,40)         53.0156         calculate D2E/DX2 analytically  !
 ! D238  D(25,24,38,86)        -67.8174         calculate D2E/DX2 analytically  !
 ! D239  D(25,24,38,87)        176.9822         calculate D2E/DX2 analytically  !
 ! D240  D(48,24,38,40)        -68.3511         calculate D2E/DX2 analytically  !
 ! D241  D(48,24,38,86)        170.8159         calculate D2E/DX2 analytically  !
 ! D242  D(48,24,38,87)         55.6155         calculate D2E/DX2 analytically  !
 ! D243  D(5,25,39,41)         -69.2679         calculate D2E/DX2 analytically  !
 ! D244  D(5,25,39,88)         171.0835         calculate D2E/DX2 analytically  !
 ! D245  D(5,25,39,89)          56.9266         calculate D2E/DX2 analytically  !
 ! D246  D(24,25,39,41)         52.3983         calculate D2E/DX2 analytically  !
 ! D247  D(24,25,39,88)        -67.2502         calculate D2E/DX2 analytically  !
 ! D248  D(24,25,39,89)        178.5928         calculate D2E/DX2 analytically  !
 ! D249  D(49,25,39,41)        170.8644         calculate D2E/DX2 analytically  !
 ! D250  D(49,25,39,88)         51.2159         calculate D2E/DX2 analytically  !
 ! D251  D(49,25,39,89)        -62.9411         calculate D2E/DX2 analytically  !
 ! D252  D(24,38,40,41)        -56.4514         calculate D2E/DX2 analytically  !
 ! D253  D(24,38,40,90)       -179.122          calculate D2E/DX2 analytically  !
 ! D254  D(24,38,40,91)         64.1469         calculate D2E/DX2 analytically  !
 ! D255  D(86,38,40,41)         63.2377         calculate D2E/DX2 analytically  !
 ! D256  D(86,38,40,90)        -59.4328         calculate D2E/DX2 analytically  !
 ! D257  D(86,38,40,91)       -176.164          calculate D2E/DX2 analytically  !
 ! D258  D(87,38,40,41)       -179.0465         calculate D2E/DX2 analytically  !
 ! D259  D(87,38,40,90)         58.283          calculate D2E/DX2 analytically  !
 ! D260  D(87,38,40,91)        -58.4482         calculate D2E/DX2 analytically  !
 ! D261  D(25,39,41,40)        -55.745          calculate D2E/DX2 analytically  !
 ! D262  D(25,39,41,92)       -178.1809         calculate D2E/DX2 analytically  !
 ! D263  D(25,39,41,93)         64.9649         calculate D2E/DX2 analytically  !
 ! D264  D(88,39,41,40)         62.5375         calculate D2E/DX2 analytically  !
 ! D265  D(88,39,41,92)        -59.8985         calculate D2E/DX2 analytically  !
 ! D266  D(88,39,41,93)       -176.7527         calculate D2E/DX2 analytically  !
 ! D267  D(89,39,41,40)        178.4865         calculate D2E/DX2 analytically  !
 ! D268  D(89,39,41,92)         56.0505         calculate D2E/DX2 analytically  !
 ! D269  D(89,39,41,93)        -60.8037         calculate D2E/DX2 analytically  !
 ! D270  D(38,40,41,39)         56.8877         calculate D2E/DX2 analytically  !
 ! D271  D(38,40,41,92)        178.8387         calculate D2E/DX2 analytically  !
 ! D272  D(38,40,41,93)        -64.1295         calculate D2E/DX2 analytically  !
 ! D273  D(90,40,41,39)        179.0585         calculate D2E/DX2 analytically  !
 ! D274  D(90,40,41,92)        -58.9905         calculate D2E/DX2 analytically  !
 ! D275  D(90,40,41,93)         58.0413         calculate D2E/DX2 analytically  !
 ! D276  D(91,40,41,39)        -64.0171         calculate D2E/DX2 analytically  !
 ! D277  D(91,40,41,92)         57.9339         calculate D2E/DX2 analytically  !
 ! D278  D(91,40,41,93)        174.9657         calculate D2E/DX2 analytically  !
 --------------------------------------------------------------------------------
 Trust Radius=3.00D-01 FncErr=5.00D-06 GrdErr=5.00D-06 EigMax=2.50D+02 EigMin=1.00D-04
 Number of steps in this run=    558 maximum allowed number of steps=    558.
 GradGradGradGradGradGradGradGradGradGradGradGradGradGradGradGradGradGrad

 Symmetry turned off by external request.
 Stoichiometry    C36H52CoN2O2(1-,3)
 Framework group  C1[X(C36H52CoN2O2)]
 Deg. of freedom   273
 Full point group                 C1      NOp   1
                          Input orientation:                          
 ---------------------------------------------------------------------
 Center     Atomic      Atomic             Coordinates (Angstroms)
 Number     Number       Type             X           Y           Z
 ---------------------------------------------------------------------
      1         27           0        0.123541    0.305515   -1.235025
      2          8           0        1.331757   -1.171519   -1.381935
      3          8           0       -1.223239   -1.016762   -0.939613
      4          7           0        1.395890    1.529547   -1.690594
      5          7           0       -1.007231    1.717689   -0.914613
      6          6           0        3.366054   -2.370993   -1.562586
      7          6           0       -3.373747   -1.968313   -0.665657
      8          6           0        2.607104   -1.150128   -1.620820
      9          6           0       -2.490056   -0.839364   -0.722795
     10          6           0        3.314052    0.056039   -1.949148
     11          6           0       -3.062707    0.465081   -0.529741
     12          6           0        5.420641   -1.160096   -2.225831
     13          6           0       -5.291067   -0.490207   -0.162689
     14          6           0        2.682497   -3.676409   -1.137586
     15          6           0       -2.830118   -3.375741   -0.941704
     16          6           0        4.720174   -2.332919   -1.869014
     17          6           0       -4.722710   -1.758261   -0.386387
     18          6           0        4.694555    0.015396   -2.249135
     19          6           0       -4.436510    0.597615   -0.247976
     20          6           0        6.912349   -1.243223   -2.550156
     21          6           0       -6.775166   -0.283271    0.152515
     22          6           0        2.656990    1.325387   -1.992563
     23          6           0       -2.280030    1.663403   -0.605177
     24          6           0        0.852580    2.882914   -1.874416
     25          6           0       -0.291076    3.020871   -0.869544
     26          6           0        1.526969   -4.022211   -2.088948
     27          6           0        2.139075   -3.527060    0.292439
     28          6           0        3.647525   -4.863684   -1.139149
     29          6           0       -1.721387   -3.737542    0.058603
     30          6           0       -3.913400   -4.450509   -0.831382
     31          6           0       -2.267417   -3.434995   -2.371035
     32          6           0        7.499021    0.121311   -2.906862
     33          6           0        7.676384   -1.793516   -1.337913
     34          6           0        7.129984   -2.187380   -3.740495
     35          6           0       -7.411489    0.612970   -0.918536
     36          6           0       -6.921685    0.401564    1.518090
     37          6           0       -7.549631   -1.600134    0.193583
     38          6           0        0.368454    3.056304   -3.315938
     39          6           0       -1.108846    4.284409   -1.115515
     40          6           0       -0.411517    4.347472   -3.514954
     41          6           0       -1.591484    4.413366   -2.553971
     42          1           0        5.284524   -3.259367   -1.829843
     43          1           0       -5.373057   -2.623213   -0.341235
     44          1           0        5.173458    0.958466   -2.502182
     45          1           0       -4.821013    1.606240   -0.097722
     46          1           0        3.258788    2.186554   -2.299300
     47          1           0       -2.811478    2.590419   -0.383358
     48          1           0        1.623713    3.635697   -1.656562
     49          1           0        0.153362    3.082609    0.133162
     50          1           0        1.060709   -4.968099   -1.789111
     51          1           0        0.767313   -3.240748   -2.082841
     52          1           0        1.889547   -4.146087   -3.115856
     53          1           0        2.954737   -3.344542    1.000984
     54          1           0        1.431169   -2.699647    0.361087
     55          1           0        1.628413   -4.444947    0.606461
     56          1           0        3.113441   -5.765795   -0.823886
     57          1           0        4.062379   -5.060663   -2.133184
     58          1           0        4.484339   -4.722440   -0.447522
     59          1           0       -1.352941   -4.751922   -0.135162
     60          1           0       -0.885119   -3.042312   -0.015709
     61          1           0       -2.100288   -3.716761    1.086864
     62          1           0       -3.474414   -5.430982   -1.042393
     63          1           0       -4.351152   -4.498251    0.171161
     64          1           0       -4.727754   -4.297883   -1.546899
     65          1           0       -3.057749   -3.249629   -3.107084
     66          1           0       -1.480267   -2.693428   -2.516318
     67          1           0       -1.849695   -4.427192   -2.578663
     68          1           0        8.565127    0.021627   -3.133765
     69          1           0        7.015445    0.557774   -3.786502
     70          1           0        7.404149    0.835781   -2.083076
     71          1           0        8.747663   -1.867932   -1.555598
     72          1           0        7.557111   -1.142099   -0.465904
     73          1           0        7.327642   -2.791912   -1.057471
     74          1           0        6.760998   -3.195795   -3.530675
     75          1           0        6.612740   -1.823167   -4.634237
     76          1           0        8.195788   -2.269598   -3.981126
     77          1           0       -8.473215    0.780401   -0.705348
     78          1           0       -6.926207    1.592266   -0.966198
     79          1           0       -7.337983    0.156667   -1.911213
     80          1           0       -6.489537   -0.210536    2.316572
     81          1           0       -6.421527    1.374447    1.537438
     82          1           0       -7.977688    0.567993    1.758820
     83          1           0       -8.601988   -1.405084    0.422891
     84          1           0       -7.515994   -2.127233   -0.765169
     85          1           0       -7.167202   -2.278518    0.962800
     86          1           0       -0.272612    2.196709   -3.557812
     87          1           0        1.230889    3.002576   -3.989572
     88          1           0       -0.451683    5.132591   -0.883113
     89          1           0       -1.937165    4.355692   -0.404822
     90          1           0       -0.750870    4.422712   -4.553258
     91          1           0        0.246768    5.210050   -3.340166
     92          1           0       -2.143155    5.350654   -2.680232
     93          1           0       -2.296737    3.603865   -2.786028
 ---------------------------------------------------------------------
 Rotational constants (GHZ):           0.1306693           0.0481613           0.0370720
 General basis read from cards:  (5D, 7F)
 ======================================================================================================
                                       Pseudopotential Parameters
 ======================================================================================================
  Center     Atomic      Valence      Angular      Power
  Number     Number     Electrons     Momentum     of R      Exponent        Coefficient   SO-Coeffient
 ======================================================================================================
    1         27           17
                                      F and up 
                                                     2        1.0000000        0.00000000    0.00000000
                                      S - F
                                                     2       23.6600000      283.96056600    0.00000000
                                                     2       10.6100000       47.15684600    0.00000000
                                      P - F
                                                     2       25.0400000      182.21223600    0.00000000
                                                     2       10.4400000       35.23335200    0.00000000
                                      D - F
                                                     2       29.5400000      -26.47533300    0.00000000
                                                     2       10.1800000       -1.82578700    0.00000000
    2          8
                                   No pseudopotential on this center.
    3          8
                                   No pseudopotential on this center.
    4          7
                                   No pseudopotential on this center.
    5          7
                                   No pseudopotential on this center.
    6          6
                                   No pseudopotential on this center.
    7          6
                                   No pseudopotential on this center.
    8          6
                                   No pseudopotential on this center.
    9          6
                                   No pseudopotential on this center.
   10          6
                                   No pseudopotential on this center.
   11          6
                                   No pseudopotential on this center.
   12          6
                                   No pseudopotential on this center.
   13          6
                                   No pseudopotential on this center.
   14          6
                                   No pseudopotential on this center.
   15          6
                                   No pseudopotential on this center.
   16          6
                                   No pseudopotential on this center.
   17          6
                                   No pseudopotential on this center.
   18          6
                                   No pseudopotential on this center.
   19          6
                                   No pseudopotential on this center.
   20          6
                                   No pseudopotential on this center.
   21          6
                                   No pseudopotential on this center.
   22          6
                                   No pseudopotential on this center.
   23          6
                                   No pseudopotential on this center.
   24          6
                                   No pseudopotential on this center.
   25          6
                                   No pseudopotential on this center.
   26          6
                                   No pseudopotential on this center.
   27          6
                                   No pseudopotential on this center.
   28          6
                                   No pseudopotential on this center.
   29          6
                                   No pseudopotential on this center.
   30          6
                                   No pseudopotential on this center.
   31          6
                                   No pseudopotential on this center.
   32          6
                                   No pseudopotential on this center.
   33          6
                                   No pseudopotential on this center.
   34          6
                                   No pseudopotential on this center.
   35          6
                                   No pseudopotential on this center.
   36          6
                                   No pseudopotential on this center.
   37          6
                                   No pseudopotential on this center.
   38          6
                                   No pseudopotential on this center.
   39          6
                                   No pseudopotential on this center.
   40          6
                                   No pseudopotential on this center.
   41          6
                                   No pseudopotential on this center.
   42          1
                                   No pseudopotential on this center.
   43          1
                                   No pseudopotential on this center.
   44          1
                                   No pseudopotential on this center.
   45          1
                                   No pseudopotential on this center.
   46          1
                                   No pseudopotential on this center.
   47          1
                                   No pseudopotential on this center.
   48          1
                                   No pseudopotential on this center.
   49          1
                                   No pseudopotential on this center.
   50          1
                                   No pseudopotential on this center.
   51          1
                                   No pseudopotential on this center.
   52          1
                                   No pseudopotential on this center.
   53          1
                                   No pseudopotential on this center.
   54          1
                                   No pseudopotential on this center.
   55          1
                                   No pseudopotential on this center.
   56          1
                                   No pseudopotential on this center.
   57          1
                                   No pseudopotential on this center.
   58          1
                                   No pseudopotential on this center.
   59          1
                                   No pseudopotential on this center.
   60          1
                                   No pseudopotential on this center.
   61          1
                                   No pseudopotential on this center.
   62          1
                                   No pseudopotential on this center.
   63          1
                                   No pseudopotential on this center.
   64          1
                                   No pseudopotential on this center.
   65          1
                                   No pseudopotential on this center.
   66          1
                                   No pseudopotential on this center.
   67          1
                                   No pseudopotential on this center.
   68          1
                                   No pseudopotential on this center.
   69          1
                                   No pseudopotential on this center.
   70          1
                                   No pseudopotential on this center.
   71          1
                                   No pseudopotential on this center.
   72          1
                                   No pseudopotential on this center.
   73          1
                                   No pseudopotential on this center.
   74          1
                                   No pseudopotential on this center.
   75          1
                                   No pseudopotential on this center.
   76          1
                                   No pseudopotential on this center.
   77          1
                                   No pseudopotential on this center.
   78          1
                                   No pseudopotential on this center.
   79          1
                                   No pseudopotential on this center.
   80          1
                                   No pseudopotential on this center.
   81          1
                                   No pseudopotential on this center.
   82          1
                                   No pseudopotential on this center.
   83          1
                                   No pseudopotential on this center.
   84          1
                                   No pseudopotential on this center.
   85          1
                                   No pseudopotential on this center.
   86          1
                                   No pseudopotential on this center.
   87          1
                                   No pseudopotential on this center.
   88          1
                                   No pseudopotential on this center.
   89          1
                                   No pseudopotential on this center.
   90          1
                                   No pseudopotential on this center.
   91          1
                                   No pseudopotential on this center.
   92          1
                                   No pseudopotential on this center.
   93          1
                                   No pseudopotential on this center.
 ======================================================================================================
  1287 basis functions,  1983 primitive gaussians,  1333 cartesian basis functions
   159 alpha electrons      157 beta electrons
       nuclear repulsion energy      5396.8072954175 Hartrees.
 NAtoms=   93 NActive=   93 NUniq=   93 SFac= 1.00D+00 NAtFMM=   60 NAOKFM=T Big=T
 Integral buffers will be    131072 words long.
 Raffenetti 2 integral format.
 Two-electron integral symmetry is turned off.
 Standard density basis: Auto (5D, 7F)
  5934 Density fitting functions
 Force inversion solution in PCM.
 ------------------------------------------------------------------------------
 Polarizable Continuum Model (PCM)
 =================================
 Model                : PCM.
 Atomic radii         : SMD-Coulomb.
 Polarization charges : Total charges.
 Charge compensation  : None.
 Solution method      : Matrix inversion.
 Cavity type          : VdW (van der Waals Surface) (Alpha=1.000).
 Cavity algorithm     : GePol (No added spheres)
                        Default sphere list used, NSphG=   93.
                        Lebedev-Laikov grids with approx.  5.0 points / Ang**2.
                        Smoothing algorithm: York/Karplus (Gamma=1.0000).
                        Polarization charges: spherical gaussians, with
                                              point-specific exponents (IZeta= 3).
                        Self-potential: point-specific (ISelfS= 7).
                        Self-field    : sphere-specific E.n sum rule (ISelfD= 2).
 1st derivatives      : Analytical E(r).r(x)/FMM algorithm (CHGder, D1EAlg=3).
                        Cavity 1st derivative terms included.
 2nd derivatives      : Analytical E(r).r(xy)/FMM algorithm (CHGder, D2EAlg=3).
                        Cavity 2nd derivative terms included.
 Solvent              : n,n-DiMethylFormamide, Eps=  37.219000 Eps(inf)=   2.046330
 ------------------------------------------------------------------------------
 ------------------------------------------------------------------------------
 Atomic radii for non-electrostatic terms: SMD-CDS.
 ------------------------------------------------------------------------------
 Nuclear repulsion after PCM non-electrostatic terms =     5396.8004728758 Hartrees.
 One-electron integrals computed using PRISM.
   1 Symmetry operations used in ECPInt.
 ECPInt:  NShTT=  132870 NPrTT=  411758 LenC2=  103960 LenP2D=  215704.
 LDataN:  DoStor=T MaxTD1= 6 Len=  172
 Number of processors reduced to  53 by ecpmxn.
 NBasis=  1287 RedAO= T EigKep=  1.04D-06  NBF=  1287
 NBsUse=  1271 1.00D-06 EigRej=  8.34D-07 NBFU=  1271
 ExpMin= 1.00D-02 ExpMax= 8.59D+03 ExpMxC= 1.30D+03 IAcc=3 IRadAn=         5 AccDes= 0.00D+00
 Harris functional with IExCor= 1009 and IRadAn=       5 diagonalized for initial guess.
 HarFok:  IExCor= 1009 AccDes= 0.00D+00 IRadAn=         5 IDoV= 1 UseB2=F ITyADJ=14
 ICtDFT=  3500011 ScaDFX=  1.000000  1.000000  1.000000  1.000000
 FoFCou: FMM=F IPFlag=           0 FMFlag=      100000 FMFlg1=        2001
         NFxFlg=           0 DoJE=T BraDBF=F KetDBF=T FulRan=T
         wScrn=  0.000000 ICntrl=       500 IOpCl=  0 I1Cent=   200000004 NGrid=           0
         NMat0=    1 NMatS0=      1 NMatT0=    0 NMatD0=    1 NMtDS0=    0 NMtDT0=    0
 Symmetry not used in FoFCou.
 Initial guess <Sx>= 0.0000 <Sy>= 0.0000 <Sz>= 1.0000 <S**2>= 2.0000 S= 1.0000
 Requested convergence on RMS density matrix=1.00D-08 within  32 cycles.
 Requested convergence on MAX density matrix=1.00D-06.
 Requested convergence on             energy=1.00D-06.
 No special actions if energy rises.
 Inv3:  Mode=1 IEnd=   101024427.
 Iteration    1 A*A^-1 deviation from unit magnitude is 3.89D-15 for    378.
 Iteration    1 A*A^-1 deviation from orthogonality  is 2.44D-15 for   4323    722.
 Iteration    1 A^-1*A deviation from unit magnitude is 4.00D-15 for    378.
 Iteration    1 A^-1*A deviation from orthogonality  is 8.65D-15 for   3922   3864.
 EnCoef did     7 forward-backward iterations
 Rare condition: small coef for last iteration:  0.000D+00
 Rare condition: small coef for last iteration:  0.000D+00
 Rare condition: small coef for last iteration:  0.000D+00
 Rare condition: small coef for last iteration:  0.000D+00
 Restarting incremental Fock formation.
 Rare condition: small coef for last iteration:  0.000D+00
 >>>>>>>>>> Convergence criterion not met.
 Error on total polarization charges =  0.10576
 SCF Done:  E(UM06) =  -1808.36750751     A.U. after   33 cycles
            NFock= 32  Conv=0.40D-04     -V/T= 2.0368
 <Sx>= 0.0000 <Sy>= 0.0000 <Sz>= 1.0000 <S**2>= 2.0755 S= 1.0250
 <L.S>=  0.00000000000    
 SMD-CDS (non-electrostatic) energy       (kcal/mol) =      -4.28
 (included in total energy above)
 Annihilation of the first spin contaminant:
 S**2 before annihilation     2.0755,   after     2.0023
 LinEq1:  Iter=  0 NonCon=     1 RMS=6.02D-06 Max=1.08D-03 NDo=     1
 AX will form     1 AO Fock derivatives at one time.
 LinEq1:  Iter=  1 NonCon=     1 RMS=1.86D-05 Max=4.93D-03 NDo=     1
 LinEq1:  Iter=  2 NonCon=     1 RMS=1.05D-05 Max=1.94D-03 NDo=     1
 LinEq1:  Iter=  3 NonCon=     1 RMS=9.65D-06 Max=1.46D-03 NDo=     1
 LinEq1:  Iter=  4 NonCon=     1 RMS=6.89D-06 Max=6.30D-04 NDo=     1
 LinEq1:  Iter=  5 NonCon=     1 RMS=6.16D-06 Max=8.47D-04 NDo=     1
 LinEq1:  Iter=  6 NonCon=     1 RMS=4.66D-06 Max=4.45D-04 NDo=     1
 LinEq1:  Iter=  7 NonCon=     1 RMS=3.27D-06 Max=4.71D-04 NDo=     1
[...]
 0.00000143,0.00002527,0.00001226,-0.00000388,0.00000509,-0.00001427,-0
 .00000190,-0.00002462,0.00000655,0.00000242,0.00006128,-0.00002098,-0.
 00000430,-0.00011385,-0.00009630,0.00002689,0.00001212,-0.00004081,0.0
 0000393,-0.00003423,-0.00007184,-0.00000063,0.00000283,0.00000891,-0.0
 0000242,-0.00000274,0.00000969,0.00000063,0.00004354,-0.00000078,-0.00
 000801,-0.00005131,0.00002339,0.00001458,-0.00004345,-0.00000096,0.000
 01118,0.00009941,-0.00001016,-0.00002557,-0.00000904,-0.00000370,0.000
 00148,0.00001364,-0.00000536,-0.00000257,-0.00010169,0.00000782,0.0000
 2033,0.00045263,0.00014014,-0.00003941,-0.00037761,0.00004451,-0.00010
 421,-0.00034374,0.00167796,0.00046008,-0.00000010,-0.00000292,0.000003
 12,-0.00000054,-0.00000404,-0.00000161,-0.00000356,-0.00000230,0.00000
 105,-0.00000041,-0.00000423,-0.00000274,0.00000404,-0.00000268,-0.0000
 0067,0.00000153,-0.00000500,0.00000284,0.00000274,-0.00000217,-0.00000
 020,0.00000459,0.00000104,-0.00000405,0.00000569,0.00000160,0.00000156
 ,-0.00000685,-0.00000371,0.00000452,-0.00000634,-0.00000162,-0.0000024
 0,-0.00000396,0.00000471,0.00000088,0.00052701,0.00130159,-0.00061885,
 0.00029787,-0.00201703,-0.00030500,-0.00101070,-0.00053838,0.00018656,
 0.10457598,-0.24427080,0.02672556,0.00000330,-0.00000046,-0.00000079,-
 0.00000324,-0.00000006,0.00000038,-0.00000048,0.00000403,-0.00000040,0
 .00000275,0.00000797,0.00000012,0.00001211,0.00001423,-0.00000883,0.00
 003659,-0.00005337,0.00002048,0.00004410,0.00000385,0.00000680,0.00019
 168,-0.00041544,0.00002596,-0.00000147,-0.00000359,-0.00000063,0.00000
 210,0.00000478,0.00000119,0.00000077,-0.00000012,-0.00000084,0.0000012
 4,-0.00000020,0.00000080,0.00000051,0.00000401,-0.00000332,-0.00000102
 ,-0.00000292,0.00000225,0.00000007,-0.00000285,0.00000041,0.00000033,-
 0.00000024,0.00000002,0.00000048,-0.00000028,0.00000008,0.00000121,-0.
 00000366,0.00000122,-0.00000206,0.00000502,-0.00000244,-0.00000092,-0.
 00000044,0.00000135,-0.00000054,-0.00000305,-0.00000014,-0.00000072,-0
 .00000051,0.00000037,-0.00000065,-0.00000029,0.00000005,-0.00000109,0.
 00000017,-0.00000070,-0.00000067,0.00000430,0.00000303,0.00000071,-0.0
 0000326,-0.00000209,0.00000253,0.00000077,-0.00000061,-0.00000026,0.00
 000028,0.00000054,-0.00000022,0.00000007,-0.00000031,0.00000366,-0.000
 00055,0.00000153,-0.00000040,0.00000029,0.00000026,-0.00000058,0.00000
 032,-0.00000015,-0.00000054,0.00000050,0.00000035,-0.00000047,0.000000
 22,0.00000009,0.00000300,-0.00000111,-0.00000256,-0.00000415,0.0000024
 0,-0.00000114,0.00000187,0.00000149,0.00000029,0.00000044,-0.00000020,
 -0.00000058,0.,0.00000032,-0.00000034,0.00000146,0.00000054,0.00000067
 ,-0.00000289,0.00000167,0.00000303,-0.00000325,-0.00000092,0.00000082,
 0.00000049,0.00000007,0.00000037,0.00000010,0.00000068,-0.00000084,-0.
 00008069,0.00027510,-0.00001296,0.00032673,-0.00022090,0.00022193,0.00
 013323,0.00054414,0.00032530,-0.00014829,0.00009883,0.00028585,0.00010
 159,0.00002949,-0.00037523,0.00038550,0.00052701,-0.00023261,-0.115154
 59,0.26155864,-0.00002361,-0.00008631,0.00009692,-0.00001685,0.0000281
 8,-0.00001197,0.00001773,0.00006754,-0.00000031,0.00003013,0.00008241,
 0.00031176,0.00031288,-0.00007022,0.00006041,0.00000987,-0.00001298,0.
 00000320,-0.00002609,-0.00001033,-0.00000119,0.00001095,0.00002550,-0.
 00000322,0.00002961,-0.00003434,-0.00001300,-0.00002376,-0.00003710,-0
 .00001849,0.00018760,0.00014684,-0.00002260,-0.00000475,0.00000914,0.0
 0000311,0.00004451,0.00009187,-0.00000129,-0.00000234,-0.00000678,0.00
 000093,0.00000160,-0.00000911,-0.00000181,-0.00002626,0.00001337,0.000
 00282,0.00005230,-0.00003868,-0.00001432,0.00000357,0.00001022,-0.0000
 0813,-0.00012019,0.00001285,0.00002417,0.00000683,0.00000216,-0.000000
 84,-0.00001118,0.00000619,0.00000312,-0.00012246,0.00004581,0.00005732
 ,-0.00041709,-0.00015857,0.00020872,0.00046870,-0.00010734,-0.00070228
 ,-0.00136121,-0.00184501,-0.00587753,0.00000024,0.00000249,-0.00000185
 ,0.00000090,0.00000290,0.00000108,0.00000233,0.00000179,-0.00000065,-0
 .00000027,0.00000422,0.00000262,-0.00000356,0.00000246,0.00000164,-0.0
 0000082,0.00000512,-0.00000152,-0.00000239,0.00000178,-0.00000031,-0.0
 0000274,-0.00000048,0.00000246,-0.00000438,-0.00000079,-0.00000161,0.0
 0000419,0.00000169,-0.00000415,0.00000520,0.00000067,0.00000164,0.0000
 0313,-0.00000455,-0.00000088,0.00359178,0.00082767,-0.00248390,-0.0150
 1532,0.02942119,-0.00478650,0.00895911,-0.01922356,0.00233341,-0.01405
 242,0.02610015,-0.04776078,-0.00000234,-0.00000006,-0.00000016,0.00000
 339,0.00000008,0.00000007,-0.00000153,-0.00000397,-0.00000089,-0.00000
 240,-0.00000577,-0.00000264,-0.00001467,-0.00000998,0.00001067,-0.0000
 2025,-0.00004460,-0.00007662,-0.00004585,-0.00000159,0.00005401,-0.001
 10186,0.00152502,-0.00045464,0.00000097,0.00000219,0.00000081,-0.00000
 119,-0.00000462,-0.00000200,-0.00000075,0.00000079,0.00000113,-0.00000
 060,0.00000003,-0.00000023,-0.00000052,-0.00000309,0.00000235,0.000000
 57,0.00000195,-0.00000151,-0.00000005,0.00000182,-0.00000033,-0.000000
 40,0.00000032,0.00000010,-0.00000002,0.00000016,0.00000023,-0.00000104
 ,0.00000335,-0.00000115,0.00000229,-0.00000451,0.00000197,0.00000074,0
 .00000023,-0.00000066,0.00000052,0.00000267,0.00000007,0.00000040,0.00
 000015,0.,0.00000085,0.00000025,-0.00000004,0.00000178,0.00000077,0.00
 000089,-0.00000025,-0.00000437,-0.00000443,-0.00000057,0.00000289,0.00
 000235,-0.00000138,-0.00000069,0.00000047,0.00000019,-0.00000024,0.000
 00019,0.00000010,0.00000013,0.00000019,-0.00000216,0.00000029,-0.00000
 087,0.00000037,0.,0.00000004,0.00000041,-0.00000058,0.00000017,0.00000
 041,-0.00000045,-0.00000023,0.00000031,-0.00000020,0.00000053,-0.00000
 173,0.00000076,0.00000178,0.00000277,-0.00000219,0.00000130,-0.0000006
 2,-0.00000058,0.00000051,0.00000013,0.00000018,0.00000031,0.00000004,0
 .00000008,0.00000008,-0.00000055,0.00000004,-0.00000017,0.00000205,-0.
 00000152,-0.00000241,0.00000252,0.00000086,-0.00000051,-0.00000024,0.0
 0000008,-0.00000024,-0.00000011,-0.00000023,0.00000041,-0.00016885,0.0
 0025343,-0.00008039,0.00098081,-0.00103470,0.00026884,0.00028921,-0.00
 054535,0.00147039,0.00080451,-0.00018923,0.00141797,-0.00101526,-0.000
 02620,0.00061598,-0.00063056,0.00047025,0.00061155,0.01464384,-0.02946
 671,0.05467184,-0.00002650,0.00001371,-0.00004739,-0.00001145,0.000009
 88,0.00000909,0.00002004,-0.00000382,-0.00000150,-0.00022295,0.0000729
 5,0.00000197,0.00002422,0.00014015,0.00030386,-0.00000601,0.00000632,-
 0.00000050,0.00002673,0.00001331,-0.00000215,0.00000042,-0.00002005,-0
 .00000017,-0.00003127,-0.00003278,-0.00000055,-0.00003492,0.00004911,0
 .00000603,-0.00003325,0.00002082,-0.00001666,-0.00000406,0.00001220,-0
 .00000286,0.00000139,-0.00001881,-0.00000159,-0.00000032,-0.00000052,-
 0.00000139,0.00000039,0.00000289,-0.00000179,0.00000423,-0.00001139,0.
 00000171,-0.00002643,0.00000937,0.00000591,0.00002169,-0.00000354,0.00
 000026,0.00001470,0.00000861,-0.00002105,-0.00000209,-0.00000007,-0.00
 000011,0.00000493,-0.00000052,-0.00000174,0.00013885,-0.00000536,-0.00
 004280,0.00045003,0.00005743,0.00018940,0.00006741,0.00007946,0.000031
 94,-0.00018901,-0.00101776,0.00020349,0.00000050,0.00000095,0.00000027
 ,0.00000025,-0.00000016,-0.00000046,0.00000041,-0.00000002,0.00000037,
 -0.00000125,-0.00000189,-0.00000088,0.00000057,-0.00000019,-0.00000060
 ,0.00000023,-0.00000215,0.00000088,0.00000054,-0.00000037,-0.00000045,
 -0.00000037,-0.00000023,-0.00000025,0.00000010,0.00000018,-0.00000042,
 -0.00000072,0.00000025,-0.00000036,-0.00000238,-0.00000064,-0.00000073
 ,-0.00000174,0.00000164,-0.00000152,0.00113124,-0.00102024,-0.00072892
 ,-0.00640374,-0.00605536,-0.00280393,-0.01837136,-0.01868215,-0.004971
 61,-0.15021071,-0.11496848,-0.03858802,-0.00000004,0.00000035,-0.00000
 003,-0.00000101,0.00000034,-0.00000120,0.00000092,0.00000044,-0.000001
 43,0.00000907,0.00000406,-0.00000582,0.00000125,-0.00000832,-0.0000063
 4,0.00001209,-0.00009550,0.00018321,0.00005172,0.00000189,0.00002219,-
 0.00001284,0.00013037,-0.00002531,-0.00000005,0.00000001,0.00000027,-0
 .00000029,-0.00000096,-0.00000065,-0.00000059,0.00000063,0.00000055,0.
 00000052,-0.00000008,0.00000054,-0.00000058,-0.00000036,-0.00000029,-0
 .00000009,0.00000008,0.00000017,-0.00000001,-0.00000004,-0.00000006,-0
 .00000038,0.00000005,0.00000030,0.00000045,-0.00000025,0.00000032,0.00
 000083,-0.00000119,0.00000046,-0.00000047,0.00000113,-0.00000115,-0.00
 000046,-0.00000039,0.00000140,-0.00000011,-0.00000113,-0.00000003,-0.0
 0000059,-0.00000080,0.00000061,0.00000082,0.00000001,0.00000025,0.0000
 0214,0.00000142,0.00000100,-0.00000225,0.00000228,-0.00000104,0.000000
 54,-0.00000170,0.00000015,0.00000017,0.00000019,0.00000001,0.,-0.00000
 043,-0.00000019,0.00000015,0.00000024,0.00000065,0.00000010,-0.0000000
 2,0.00000002,0.00000012,0.00000017,0.00000049,0.00000012,0.00000030,-0
 .00000014,-0.00000006,0.00000054,-0.00000012,-0.00000019,-0.00000023,0
 .00000039,0.00000023,0.00000007,0.00000008,-0.00000112,-0.00000002,0.0
 0000034,-0.00000092,-0.00000234,-0.00000119,0.00000089,0.00000129,0.00
 000172,-0.00000016,-0.00000034,0.00000066,-0.00000020,0.00000001,0.000
 00033,-0.00000082,0.00000078,0.00000117,-0.00000102,-0.00000032,0.0000
 0054,0.00000049,0.00000065,0.00000056,-0.00000034,-0.00000032,0.000000
 15,0.00002354,0.00051158,-0.00002360,0.00027821,0.00009845,0.00014396,
 0.00030323,0.00015138,-0.00163523,0.00034124,0.00030997,-0.00007058,0.
 00118850,0.00030695,-0.00014171,-0.00363834,0.00043530,0.00318253,0.00
 942146,0.01028128,0.00377109,0.16569575,-0.00011589,0.00002896,-0.0000
 2310,-0.00001416,0.00002356,0.00000979,0.00006986,0.00001601,-0.000008
 74,-0.00010863,0.00008157,-0.00001293,-0.00004046,-0.00021268,0.000740
 02,0.00000349,-0.00000517,-0.00000090,0.00003803,0.00001737,-0.0000085
 2,0.00000719,0.00000208,-0.00000221,-0.00006720,-0.00004588,0.00000146
 ,-0.00003472,0.00001953,0.00001020,0.00002981,0.00007221,-0.00006573,-
 0.00000657,0.00002080,-0.00000066,0.00001934,-0.00000603,-0.00000183,-
 0.00000180,-0.00000454,0.00000016,0.00000057,0.00000141,-0.00000084,-0
 .00001828,-0.00000266,0.00000384,-0.00002946,0.00000460,0.00000493,0.0
 0002421,-0.00000085,-0.00000629,-0.00002748,0.00002840,-0.00000931,0.0
 0000412,0.00000196,-0.00000149,-0.00000074,0.00000108,-0.00000143,0.00
 005679,-0.00000314,-0.00002634,0.00024720,-0.00030690,0.00057488,0.000
 17166,-0.00001464,0.00009575,-0.00003596,-0.00020766,-0.00047116,-0.00
 000007,0.00000190,-0.00000136,0.00000056,0.00000191,0.00000041,0.00000
 162,0.00000090,-0.00000043,-0.00000178,-0.00000095,-0.00000065,0.00000
 003,-0.00000063,0.00000035,-0.00000154,-0.00000118,0.00000047,-0.00000
 100,0.00000096,-0.00000016,-0.00000198,-0.00000044,0.00000161,-0.00000
 255,-0.00000084,-0.00000084,0.00000428,0.00000447,-0.00000154,0.000000
 67,0.00000042,-0.00000033,0.00000075,-0.00000020,0.00000099,0.00062407
 ,0.00067989,-0.00004525,0.00222080,0.00244359,-0.00003619,0.00087253,0
 .00015382,0.00095700,-0.11606020,-0.17611240,-0.04243280,-0.00000158,0
 .00000037,0.00000015,0.00000029,0.00000015,-0.00000048,0.00000003,-0.0
 0000257,0.00000029,0.00001050,-0.00000187,-0.00001123,-0.00000426,-0.0
 0000497,-0.00000054,-0.00005344,-0.00010727,0.00016607,-0.00002520,-0.
 00004639,-0.00000806,-0.00018995,0.00016547,-0.00011770,0.00000080,0.0
 0000176,0.00000044,-0.00000082,-0.00000240,-0.00000172,-0.00000065,0.0
 0000060,0.00000074,-0.00000010,-0.00000003,0.00000005,-0.00000051,-0.0
 0000243,0.00000163,0.00000054,0.00000145,-0.00000103,-0.00000011,0.000
 00134,-0.00000014,-0.00000031,0.00000016,0.00000011,0.00000006,0.00000
 006,0.00000016,0.00000089,-0.00000069,0.00000023,0.00000058,0.00000034
 ,-0.00000034,0.00000016,-0.00000037,0.00000068,0.00000006,-0.00000074,
 -0.00000008,-0.00000004,-0.00000044,0.00000019,0.00000083,0.00000014,0
 .00000036,0.00000115,0.00000074,0.00000149,-0.00000106,0.00000010,-0.0
 0000044,0.00000070,-0.00000058,-0.00000025,-0.00000102,-0.00000030,0.0
 0000030,0.00000018,-0.00000034,-0.00000025,0.00000011,0.00000023,0.000
 00041,-0.00000158,0.00000021,-0.00000070,0.00000013,-0.00000006,0.0000
 0012,0.00000041,-0.00000012,0.00000003,0.00000025,0.00000003,-0.000000
 19,0.00000024,-0.00000029,0.00000024,-0.00000125,0.00000053,0.00000118
 ,-0.00000048,-0.00000125,0.00000118,-0.00000095,-0.00000402,-0.0000020
 8,0.00000135,0.00000187,0.00000137,0.00000054,-0.00000100,0.00000129,-
 0.00000064,0.00000011,-0.00000129,-0.00000038,0.00000029,0.00000019,-0
 .00000045,0.00000020,-0.00000013,0.00000008,0.00000047,0.00000021,-0.0
 0000015,-0.00000124,0.00000063,0.00002908,0.00032100,-0.00033902,-0.00
 002715,0.00023630,0.00007987,0.00041302,0.00109839,0.00053306,-0.00014
 234,0.00009179,-0.00042738,-0.00020937,0.00013289,0.00031661,0.0004143
 6,0.00113474,0.00019094,-0.01725942,-0.01854455,-0.00618541,0.12921974
 ,0.18885159,0.00012226,-0.00003585,-0.00000279,0.00000076,-0.00001379,
 -0.00001299,-0.00001832,0.00001063,0.00000262,-0.00020873,0.00000395,0
 .00013845,-0.00012727,0.00061525,0.00061552,-0.00000794,0.00001082,0.0
 0000317,-0.00000133,-0.00000451,-0.00000256,-0.00000423,-0.00002561,0.
 00000539,-0.00000340,-0.00000419,0.00000279,-0.00001877,0.00003858,-0.
 00000962,-0.00000250,-0.00002999,-0.00001308,0.00000011,-0.00000361,0.
 00000063,-0.00000054,-0.00000861,-0.00000214,0.00000182,0.00000424,-0.
 00000118,-0.00000032,0.00000114,0.00000047,0.00001861,-0.00001209,-0.0
 0000230,0.00000015,0.00000673,0.00000158,0.00000513,-0.00000265,-0.000
 00059,0.00002798,0.00001809,0.00000155,-0.00000412,-0.00000033,0.00000
 112,0.00000100,-0.00000021,-0.00000145,0.00011753,0.00000921,-0.000028
 98,0.00045360,0.00026207,-0.00021012,0.00012611,0.00002606,-0.00023005
 ,0.00026744,-0.00069262,0.00117796,-0.00000022,-0.00000152,0.00000146,
 -0.00000043,-0.00000222,-0.00000081,-0.00000152,-0.00000119,0.00000047
 ,-0.00000059,-0.00000116,-0.00000026,0.00000088,-0.00000087,-0.0000005
 8,-0.00000013,-0.00000119,0.00000050,0.00000131,-0.00000092,-0.0000003
 7,0.00000138,-0.00000004,-0.00000172,0.00000207,0.00000037,0.00000069,
 0.00000029,0.00000278,0.00000036,-0.00000030,0.00000022,-0.00000024,-0
 .00000053,0.00000045,0.00000066,-0.00094375,0.00060990,0.00057232,-0.0
 2061250,-0.02368984,-0.00858115,0.01461091,0.01530825,0.00359500,-0.03
 874414,-0.04228159,-0.05818743,0.00000105,0.00000017,-0.00000065,-0.00
 000078,-0.00000108,-0.00000006,0.00000014,0.00000108,-0.00000169,0.000
 00437,-0.00000394,-0.00001245,0.00000368,-0.00000007,-0.00000146,0.000
 00755,0.00005330,-0.00023629,0.00001379,-0.00000834,-0.00001254,0.0002
 4273,0.00000254,0.00002655,-0.00000064,-0.00000125,-0.00000042,0.00000
 071,0.00000202,0.00000103,0.00000041,-0.00000029,-0.00000038,0.0000007
 0,-0.00000020,0.00000028,-0.00000017,0.00000165,-0.00000130,-0.0000004
 3,-0.00000101,0.00000093,0.00000006,-0.00000108,0.00000017,0.00000011,
 -0.00000006,0.00000013,0.00000013,-0.00000017,-0.00000011,0.00000047,-
 0.00000073,0.00000018,0.00000004,0.00000098,-0.00000092,-0.00000023,-0
 .00000025,0.00000035,-0.00000012,-0.00000066,0.00000005,-0.00000002,0.
 00000005,0.,0.00000015,0.00000015,0.00000003,0.,0.00000007,0.00000025,
 0.00000018,0.00000010,0.00000057,0.00000024,-0.00000086,-0.00000045,0.
 00000081,0.00000037,-0.00000015,0.00000007,0.00000007,0.00000026,-0.00
 000009,0.00000003,-0.00000003,0.00000124,-0.00000013,0.00000064,0.0000
 0009,0.00000015,0.00000026,-0.00000014,0.00000024,-0.00000016,-0.00000
 007,0.00000031,0.00000016,-0.00000013,0.00000010,0.00000002,0.00000091
 ,-0.00000034,-0.00000088,-0.00000128,-0.00000030,0.00000053,0.00000062
 ,-0.00000161,-0.00000016,0.00000054,0.00000041,0.00000070,0.00000034,-
 0.00000088,0.00000060,-0.00000005,0.00000084,-0.00000182,-0.00000060,0
 .00000076,0.00000054,-0.00000052,-0.00000012,0.00000028,0.00000006,-0.
 00000002,-0.00000016,0.00000014,-0.00000060,0.00000015,-0.00034093,-0.
 00021524,0.00003564,-0.00022711,0.00009395,-0.00011266,-0.00223600,0.0
 0100333,-0.00573242,0.00073647,0.00000848,0.00127761,-0.00096748,0.000
 17969,0.00078707,0.00396101,-0.00044887,-0.00168713,0.00265503,0.00266
 576,0.00009672,0.04108520,0.04655737,0.06674026\\0.00001936,0.00004529
 ,0.00000126,-0.00004457,0.00000418,0.00001490,-0.00003762,-0.00001048,
 -0.00002361,-0.00004938,-0.00001304,0.00001885,-0.00003273,-0.00001305
 ,-0.00004062,-0.00002395,0.00001468,-0.00000677,-0.00001386,-0.0000099
 7,0.00001038,0.00004238,-0.00001238,0.00000210,0.00003992,0.00000820,0
 .00000991,-0.00000918,0.00001834,-0.00000429,-0.00000406,0.00000341,-0
 .00000981,-0.00000165,-0.00000953,0.00000278,0.00000006,0.00000855,0.0
 0000083,-0.00000175,0.00000348,-0.00000074,-0.00000017,0.00000179,0.00
 000107,0.00002398,-0.00000355,-0.00000326,0.00001574,-0.00000164,-0.00
 000412,0.00000430,-0.00000094,-0.00000156,-0.00000245,0.00000127,-0.00
 000034,-0.00000297,-0.00000288,0.00000133,-0.00000037,0.00000085,-0.00
 000135,0.00003310,-0.00000996,0.00000724,0.00003770,-0.00001037,0.0000
 0941,0.,-0.00001717,0.00000361,0.00000446,0.00000035,0.00000280,-0.000
 00126,-0.00000164,0.00000078,0.00000152,-0.00000171,0.00000181,0.00000
 022,-0.00000071,0.00000010,0.00000141,0.00000180,0.00000472,-0.0000007
 9,0.00000074,0.00000181,0.00000056,-0.00000178,-0.00000187,0.00000076,
 -0.00000033,-0.00000039,0.00000190,-0.00000036,-0.00000075,0.00000113,
 -0.00000069,-0.00000124,0.00000028,0.00000099,-0.00000089,0.00000104,0
 .00000250,0.00000114,0.00000022,0.00000052,0.00000092,-0.00000228,0.00
 000332,0.00000215,-0.00000113,0.00000078,0.00000006,-0.00000051,0.0000
 0088,-0.00000416,0.00000129,-0.00000139,-0.00000041,-0.00000064,-0.000
 00058,0.00000213,-0.00000008,0.00000014,-0.00000085,0.00000048,-0.0000
 0016,-0.00000114,-0.00000021,0.00000056,0.00000010,-0.00000149,-0.0000
 0095,-0.00000177,0.00000413,0.00000063,0.00000792,0.00000013,-0.000002
 26,-0.00000156,0.00000113,0.00000313,-0.00000160,0.00000194,-0.0000008
 3,0.00000040,-0.00000186,0.00000214,0.00000086,-0.00000025,-0.00000127
 ,0.00000027,0.00000064,-0.00000063,0.00000001,-0.00000109,0.00000113,-
 0.00000057,-0.00000270,0.00000076,0.00000104,-0.00000028,-0.00000053,0
 .00000132,-0.00000070,-0.00000056,0.00000123,-0.00000081,-0.00000066,0
 .00000026,-0.00000081,0.00000063,0.00000124,-0.00000109,-0.00000219,0.
 00000128,-0.00000053,0.00000065,0.00000018,-0.00000048,0.00000106,0.00
 000099,-0.00000004,0.00000024,0.00000081,-0.00000002,0.00000062,0.0000
 0093,-0.00000025,0.00000032,0.00000107,0.00000421,-0.00000037,-0.00000
 033,-0.00000320,0.00000112,0.00000037,0.00000008,-0.00000073,-0.000000
 80,0.00000074,-0.00000120,-0.00000081,0.00000037,-0.00000106,-0.000000
 81,0.00000027,-0.00000073,-0.00000021,0.00000005,-0.00000054,-0.000000
 62,0.00000067,0.00000002,0.00000037,-0.00000003,-0.00000048,-0.0000002
 5,-0.00000017,-0.00000099,0.00000014,-0.00000023,-0.00000129,-0.000000
 66,0.00000059,0.00000057,0.00000020,-0.00000022,0.00000038,0.00000024,
 -0.00000013,0.00000047,0.00000041,0.00000012,0.00000119,-0.00000008,0.
 00000008,0.00000169,0.00000047,0.00000065,0.00000140,0.,0.00000052,0.0
 0000135,0.00000087,-0.00000048,0.00000107,0.00000055,-0.00000036,0.000
 00134,0.00000097,-0.00000067,-0.00000156,-0.00000234,0.00000054,0.0000
 0027,0.00000029,0.00000101,-0.00000088,-0.00000098,-0.00000084,0.00000
 173,-0.00000093,-0.00000074,0.00000025,-0.00000101,0.00000050,-0.00000
 108,-0.00000107,-0.00000012,-0.00000058,-0.00000043,0.00000098,-0.0000
 0112,-0.00000192\\\@
 The archive entry for this job was punched.


 THE MOST INCOMPREHENSIBLE THING ABOUT THE WORLD
 IS THAT IT IS COMPREHENSIBLE. -- A. EINSTEIN
 Job cpu time:      37 days 17 hours 49 minutes  2.5 seconds.
 Elapsed time:       0 days  9 hours 35 minutes 25.3 seconds.
 File lengths (MBytes):  RWF=  22021 Int=      0 D2E=      0 Chk=    241 Scr=      1
 Normal termination of Gaussian 16 at Sat Feb 15 19:57:57 2025.
11487833.04user 8726.92system 33:49:54elapsed 9439%CPU (0avgtext+0avgdata 63231404maxresident)k
0inputs+55465656outputs (347394major+159915710minor)pagefaults 0swaps
