 Entering Gaussian System, Link 0=g16
 Initial command:
 /common/software/install/migrated/gaussian/g16.c01.avx2/g16/l1.exe "/tmp/quach062/31557432/Gau-1070753.inp" -scrdir="/tmp/quach062/31557432/"
 Entering Link 1 = /common/software/install/migrated/gaussian/g16.c01.avx2/g16/l1.exe PID=   1070754.
  
 Copyright (c) 1988-2019, Gaussian, Inc.  All Rights Reserved.
  
 This is part of the Gaussian(R) 16 program.  It is based on
 the Gaussian(R) 09 system (copyright 2009, Gaussian, Inc.),
 the Gaussian(R) 03 system (copyright 2003, Gaussian, Inc.),
 the Gaussian(R) 98 system (copyright 1998, Gaussian, Inc.),
 the Gaussian(R) 94 system (copyright 1995, Gaussian, Inc.),
 the Gaussian 92(TM) system (copyright 1992, Gaussian, Inc.),
 the Gaussian 90(TM) system (copyright 1990, Gaussian, Inc.),
 the Gaussian 88(TM) system (copyright 1988, Gaussian, Inc.),
 the Gaussian 86(TM) system (copyright 1986, Carnegie Mellon
 University), and the Gaussian 82(TM) system (copyright 1983,
 Carnegie Mellon University). Gaussian is a federally registered
 trademark of Gaussian, Inc.
  
 This software contains proprietary and confidential information,
 including trade secrets, belonging to Gaussian, Inc.
  
 This software is provided under written license and may be
 used, copied, transmitted, or stored only in accord with that
 written license.
  
 The following legend is applicable only to US Government
 contracts under FAR:
  
                    RESTRICTED RIGHTS LEGEND
  
 Use, reproduction and disclosure by the US Government is
 subject to restrictions as set forth in subparagraphs (a)
 and (c) of the Commercial Computer Software - Restricted
 Rights clause in FAR 52.227-19.
  
 Gaussian, Inc.
 340 Quinnipiac St., Bldg. 40, Wallingford CT 06492
  
  
 ---------------------------------------------------------------
 Warning -- This program may not be used in any manner that
 competes with the business of Gaussian, Inc. or will provide
 assistance to any competitor of Gaussian, Inc.  The licensee
 of this program is prohibited from giving any competitor of
 Gaussian, Inc. access to this program.  By using this program,
 the user acknowledges that Gaussian, Inc. is engaged in the
 business of creating and licensing software in the field of
 computational chemistry and represents and warrants to the
 licensee that it is not a competitor of Gaussian, Inc. and that
 it will not use this program in any manner prohibited above.
 ---------------------------------------------------------------
  

 Cite this work as:
 Gaussian 16, Revision C.01,
 M. J. Frisch, G. W. Trucks, H. B. Schlegel, G. E. Scuseria, 
 M. A. Robb, J. R. Cheeseman, G. Scalmani, V. Barone, 
 G. A. Petersson, H. Nakatsuji, X. Li, M. Caricato, A. V. Marenich, 
 J. Bloino, B. G. Janesko, R. Gomperts, B. Mennucci, H. P. Hratchian, 
 J. V. Ortiz, A. F. Izmaylov, J. L. Sonnenberg, D. Williams-Young, 
 F. Ding, F. Lipparini, F. Egidi, J. Goings, B. Peng, A. Petrone, 
 T. Henderson, D. Ranasinghe, V. G. Zakrzewski, J. Gao, N. Rega, 
 G. Zheng, W. Liang, M. Hada, M. Ehara, K. Toyota, R. Fukuda, 
 J. Hasegawa, M. Ishida, T. Nakajima, Y. Honda, O. Kitao, H. Nakai, 
 T. Vreven, K. Throssell, J. A. Montgomery, Jr., J. E. Peralta, 
 F. Ogliaro, M. J. Bearpark, J. J. Heyd, E. N. Brothers, K. N. Kudin, 
 V. N. Staroverov, T. A. Keith, R. Kobayashi, J. Normand, 
 K. Raghavachari, A. P. Rendell, J. C. Burant, S. S. Iyengar, 
 J. Tomasi, M. Cossi, J. M. Millam, M. Klene, C. Adamo, R. Cammi, 
 J. W. Ochterski, R. L. Martin, K. Morokuma, O. Farkas, 
 J. B. Foresman, and D. J. Fox, Gaussian, Inc., Wallingford CT, 2019.
 
 ******************************************
 Gaussian 16:  ES64L-G16RevC.01  3-Jul-2019
                14-Feb-2025 
 ******************************************
 %chk=CoII_Q_1.chk
 %lindaworkers=in-cn0088
 %nprocshared=128
 Will use up to  128 processors via shared memory.
 %mem=59800MB
 SetLPE:  input flags=" -workerwait 900 -opt "Tsnet.Node.lindarsharg: ssh " "
 SetLPE:    new flags=" -workerwait 900 -opt "Tsnet.Node.lindarsharg: ssh " -opt 'Tsnet.Node.lindarsharg: ssh'  -nodelist 'in-cn0088' -env GAUSS_MDEF=7838105600 -env GAUSS_EXEDIR="/common/software/install/migrated/gaussian/g16.c01.avx2/g16/bsd:/common/software/install/migrated/gaussian/g16.c01.avx2/g16/local:/common/software/install/migrated/gaussian/g16.c01.avx2/g16/extras:/common/software/install/migrated/gaussian/g16.c01.avx2/g16""
 Will use up to    1 processors via Linda.
 ----------------------------------------------------------------------
 # opt=calcfc # freq # m06/genecp/auto # nosymm integral=grid=ultrafine
  # scf=(tight,intrep,xqc) # SCRF=(SMD,Solvent=n,n-DiMethylFormamide)
 ----------------------------------------------------------------------
 1/10=4,18=20,19=15,26=6,38=1/1,3;
 2/9=110,12=2,15=1,17=6,18=5,40=1/2;
 3/5=7,11=2,16=1,17=8,25=1,30=1,70=32201,71=2,72=148,74=-54,75=-5,82=28,140=1/1,2,3;
 4//1;
 5/5=2,8=3,13=1,17=20,32=2,38=5,53=148/2,8;
 8/6=4,10=90,11=11/1;
 11/6=1,8=1,9=11,15=111,16=1,31=1/1,2,10;
 10/6=1,13=1,31=1/2;
 6/7=2,8=2,9=2,10=2,28=1/1;
 7/10=1,25=1,30=1/1,2,3,16;
 1/10=4,18=20,19=15,26=6/3(2);
 2/9=110,15=1/2;
 99//99;
 2/9=110,15=1/2;
 3/5=7,6=1,11=2,16=1,17=8,25=1,30=1,70=32205,71=1,72=148,74=-54,75=-5,82=7/1,2,3;
 4/5=5,16=3,69=1/1;
 5/5=2,8=3,13=1,17=20,32=2,38=5,53=148/2,8;
 7/30=1/1,2,3,16;
 1/18=20,19=15,26=6/3(-5);
 2/9=110,15=1/2;
 6/7=2,8=2,9=2,10=2,19=2,28=1/1;
 99/9=1/99;
 -------------------
 Title Card Required
 -------------------
 Symbolic Z-matrix:
 Charge =  0 Multiplicity = 4
 Co                   -0.40908  -0.46884  -3.70882 
 O                     0.82337  -1.915    -3.79419 
 O                    -1.76069  -1.76624  -3.40175 
 N                     0.87053   0.79901  -4.22735 
 N                    -1.54907   0.99791  -3.38231 
 C                     2.8469   -3.1068   -4.03777 
 C                    -3.91634  -2.69571  -3.14908 
 C                     2.09025  -1.88496  -4.07963 
 C                    -3.0291   -1.57088  -3.195 
 C                     2.78209  -0.68273  -4.43357 
 C                    -3.59312  -0.26653  -3.01147 
 C                     4.89038  -1.87801  -4.71632 
 C                    -5.82814  -1.19562  -2.67247 
 C                     2.17044  -4.4214   -3.63117 
 C                    -3.38389  -4.10803  -3.4213 
 C                     4.1933   -3.05492  -4.35712 
 C                    -5.26208  -2.4684   -2.88718 
 C                     4.1621   -0.70963  -4.74264 
 C                    -4.9696   -0.11607  -2.74776 
 C                     6.37954  -1.95949  -5.04733 
 C                    -7.31529  -0.98324  -2.37737 
 C                     2.12403   0.58347  -4.49129 
 C                    -2.81227   0.93068  -3.09415 
 C                     0.29448   2.13576  -4.41278 
 C                    -0.80797   2.28304  -3.36101 
 C                     0.9987   -4.74485  -4.5713 
 C                     1.65441  -4.31374  -2.18772 
 C                     3.13932  -5.60416  -3.68532 
 C                    -2.28645  -4.48524  -2.4141 
 C                    -4.48296  -5.16715  -3.3166 
 C                    -2.8168   -4.17493  -4.84847 
 C                     6.96302  -0.59116  -5.39283 
 C                     7.14478  -2.52203  -3.84183 
 C                     6.58713  -2.89323  -6.24736 
 C                    -7.9271   -0.07188  -3.44947 
 C                    -7.47299  -0.31138  -1.00692 
 C                    -8.09669  -2.29624  -2.36171 
 C                    -0.26316   2.26358  -5.83108 
 C                    -1.62666   3.54843  -3.58016 
 C                    -1.04392   3.55721  -6.01596 
 C                    -2.17245   3.66022  -4.99804 
 H                     4.76155  -3.97907  -4.33032 
 H                    -5.92042  -3.32734  -2.84908 
 H                     4.62999   0.23537  -5.00514 
 H                    -5.34492   0.89618  -2.60688 
 H                     2.73696   1.4412   -4.78647 
 H                    -3.35397   1.85853  -2.89704 
 H                     1.06236   2.90233  -4.24614 
 H                    -0.32616   2.32932  -2.37522 
 H                     0.5544   -5.70817  -4.29669 
 H                     0.22333  -3.98106  -4.51996 
 H                     1.33915  -4.82382  -5.60973 
 H                     2.48122  -4.14398  -1.48957 
 H                     0.93912  -3.49781  -2.07792 
 H                     1.15841  -5.24527  -1.89228 
 H                     2.61243  -6.51628  -3.38893 
 H                     3.53709  -5.76846  -4.69202 
 H                     3.98667  -5.48132  -3.00344 
 H                    -1.94345  -5.50933  -2.60042 
 H                    -1.42913  -3.8167   -2.48762 
 H                    -2.66751  -4.44799  -1.38752 
 H                    -4.05517  -6.15281  -3.52412 
 H                    -4.92717  -5.2077   -2.31681 
 H                    -5.28968  -5.00402  -4.03811 
 H                    -3.60029  -3.97645  -5.58787 
 H                    -2.01418  -3.45104  -4.9956 
 H                    -2.41631  -5.1746   -5.05168 
 H                     8.02874  -0.68793  -5.62128 
 H                     6.47839  -0.1482   -6.26852 
 H                     6.86788   0.11553  -4.56241 
 H                     8.21461  -2.59431  -4.06496 
 H                     7.02898  -1.87864  -2.9636 
 H                     6.79747  -3.52324  -3.57016 
 H                     6.21707  -3.90282  -6.04542 
 H                     6.06725  -2.51866  -7.13508 
 H                     7.65155  -2.97508  -6.49226 
 H                    -8.99075   0.09819  -3.25056 
 H                    -7.4366    0.90545  -3.47803 
 H                    -7.84035  -0.518    -4.44553 
 H                    -7.05544  -0.93469  -0.20954 
 H                    -6.96698   0.65805  -0.9719 
 H                    -8.53085  -0.14098  -0.77917 
 H                    -9.15124  -2.09623  -2.1487 
 H                    -8.0499   -2.81425  -3.32484 
 H                    -7.73188  -2.98351  -1.59198 
 H                    -0.92045   1.40315  -6.02026 
 H                     0.56353   2.18976  -6.54525 
 H                    -0.95435   4.3927   -3.38374 
 H                    -2.42199   3.6276   -2.8334 
 H                    -1.43636   3.61209  -7.0361 
 H                    -0.36705   4.41416  -5.89642 
 H                    -2.7117    4.6055   -5.11315 
 H                    -2.90404   2.86241  -5.1826 
 

 GradGradGradGradGradGradGradGradGradGradGradGradGradGradGradGradGradGrad
 Berny optimization.
 Initialization pass.
                           ----------------------------
                           !    Initial Parameters    !
                           ! (Angstroms and Degrees)  !
 --------------------------                            --------------------------
 ! Name  Definition              Value          Derivative Info.                !
 --------------------------------------------------------------------------------
 ! R1    R(1,2)                  1.902          calculate D2E/DX2 analytically  !
 ! R2    R(1,3)                  1.8985         calculate D2E/DX2 analytically  !
 ! R3    R(1,4)                  1.8745         calculate D2E/DX2 analytically  !
 ! R4    R(1,5)                  1.8861         calculate D2E/DX2 analytically  !
 ! R5    R(2,8)                  1.299          calculate D2E/DX2 analytically  !
 ! R6    R(3,9)                  1.2999         calculate D2E/DX2 analytically  !
 ! R7    R(4,22)                 1.299          calculate D2E/DX2 analytically  !
 ! R8    R(4,24)                 1.4674         calculate D2E/DX2 analytically  !
 ! R9    R(5,23)                 1.2974         calculate D2E/DX2 analytically  !
 ! R10   R(5,25)                 1.4837         calculate D2E/DX2 analytically  !
 ! R11   R(6,8)                  1.4378         calculate D2E/DX2 analytically  !
 ! R12   R(6,14)                 1.5333         calculate D2E/DX2 analytically  !
 ! R13   R(6,16)                 1.3847         calculate D2E/DX2 analytically  !
 ! R14   R(7,9)                  1.4334         calculate D2E/DX2 analytically  !
 ! R15   R(7,15)                 1.5337         calculate D2E/DX2 analytically  !
 ! R16   R(7,17)                 1.3897         calculate D2E/DX2 analytically  !
 ! R17   R(8,10)                 1.4315         calculate D2E/DX2 analytically  !
 ! R18   R(9,11)                 1.4329         calculate D2E/DX2 analytically  !
 ! R19   R(10,18)                1.4145         calculate D2E/DX2 analytically  !
 ! R20   R(10,22)                1.4282         calculate D2E/DX2 analytically  !
 ! R21   R(11,19)                1.4096         calculate D2E/DX2 analytically  !
 ! R22   R(11,23)                1.4317         calculate D2E/DX2 analytically  !
 ! R23   R(12,16)                1.4142         calculate D2E/DX2 analytically  !
 ! R24   R(12,18)                1.377          calculate D2E/DX2 analytically  !
 ! R25   R(12,20)                1.5277         calculate D2E/DX2 analytically  !
 ! R26   R(13,17)                1.4094         calculate D2E/DX2 analytically  !
 ! R27   R(13,19)                1.3814         calculate D2E/DX2 analytically  !
 ! R28   R(13,21)                1.531          calculate D2E/DX2 analytically  !
 ! R29   R(14,26)                1.5367         calculate D2E/DX2 analytically  !
 ! R30   R(14,27)                1.5367         calculate D2E/DX2 analytically  !
 ! R31   R(14,28)                1.5299         calculate D2E/DX2 analytically  !
 ! R32   R(15,29)                1.5366         calculate D2E/DX2 analytically  !
 ! R33   R(15,30)                1.5299         calculate D2E/DX2 analytically  !
 ! R34   R(15,31)                1.5372         calculate D2E/DX2 analytically  !
 ! R35   R(16,42)                1.0852         calculate D2E/DX2 analytically  !
 ! R36   R(17,43)                1.0829         calculate D2E/DX2 analytically  !
 ! R37   R(18,44)                1.0867         calculate D2E/DX2 analytically  !
 ! R38   R(19,45)                1.0887         calculate D2E/DX2 analytically  !
 ! R39   R(20,32)                1.5271         calculate D2E/DX2 analytically  !
 ! R40   R(20,33)                1.5347         calculate D2E/DX2 analytically  !
 ! R41   R(20,34)                1.5346         calculate D2E/DX2 analytically  !
 ! R42   R(21,35)                1.5344         calculate D2E/DX2 analytically  !
 ! R43   R(21,36)                1.5344         calculate D2E/DX2 analytically  !
 ! R44   R(21,37)                1.528          calculate D2E/DX2 analytically  !
 ! R45   R(22,46)                1.0948         calculate D2E/DX2 analytically  !
 ! R46   R(23,47)                1.0923         calculate D2E/DX2 analytically  !
 ! R47   R(24,25)                1.5308         calculate D2E/DX2 analytically  !
 ! R48   R(24,38)                1.5293         calculate D2E/DX2 analytically  !
 ! R49   R(24,48)                1.0977         calculate D2E/DX2 analytically  !
 ! R50   R(25,39)                1.523          calculate D2E/DX2 analytically  !
 ! R51   R(25,49)                1.0982         calculate D2E/DX2 analytically  !
 ! R52   R(26,50)                1.0958         calculate D2E/DX2 analytically  !
 ! R53   R(26,51)                1.0896         calculate D2E/DX2 analytically  !
 ! R54   R(26,52)                1.0957         calculate D2E/DX2 analytically  !
 ! R55   R(27,53)                1.0954         calculate D2E/DX2 analytically  !
 ! R56   R(27,54)                1.0906         calculate D2E/DX2 analytically  !
 ! R57   R(27,55)                1.0959         calculate D2E/DX2 analytically  !
 ! R58   R(28,56)                1.0943         calculate D2E/DX2 analytically  !
 ! R59   R(28,57)                1.0948         calculate D2E/DX2 analytically  !
 ! R60   R(28,58)                1.0945         calculate D2E/DX2 analytically  !
 ! R61   R(29,59)                1.096          calculate D2E/DX2 analytically  !
 ! R62   R(29,60)                1.0896         calculate D2E/DX2 analytically  !
 ! R63   R(29,61)                1.0957         calculate D2E/DX2 analytically  !
 ! R64   R(30,62)                1.0943         calculate D2E/DX2 analytically  !
 ! R65   R(30,63)                1.0948         calculate D2E/DX2 analytically  !
 ! R66   R(30,64)                1.0945         calculate D2E/DX2 analytically  !
 ! R67   R(31,65)                1.0954         calculate D2E/DX2 analytically  !
 ! R68   R(31,66)                1.0908         calculate D2E/DX2 analytically  !
 ! R69   R(31,67)                1.0959         calculate D2E/DX2 analytically  !
 ! R70   R(32,68)                1.0942         calculate D2E/DX2 analytically  !
 ! R71   R(32,69)                1.0945         calculate D2E/DX2 analytically  !
 ! R72   R(32,70)                1.0946         calculate D2E/DX2 analytically  !
 ! R73   R(33,71)                1.0952         calculate D2E/DX2 analytically  !
 ! R74   R(33,72)                1.0948         calculate D2E/DX2 analytically  !
 ! R75   R(33,73)                1.094          calculate D2E/DX2 analytically  !
 ! R76   R(34,74)                1.0941         calculate D2E/DX2 analytically  !
 ! R77   R(34,75)                1.0948         calculate D2E/DX2 analytically  !
 ! R78   R(34,76)                1.0953         calculate D2E/DX2 analytically  !
 ! R79   R(35,77)                1.0954         calculate D2E/DX2 analytically  !
 ! R80   R(35,78)                1.0939         calculate D2E/DX2 analytically  !
 ! R81   R(35,79)                1.0948         calculate D2E/DX2 analytically  !
 ! R82   R(36,80)                1.0948         calculate D2E/DX2 analytically  !
 ! R83   R(36,81)                1.0941         calculate D2E/DX2 analytically  !
 ! R84   R(36,82)                1.0954         calculate D2E/DX2 analytically  !
 ! R85   R(37,83)                1.0943         calculate D2E/DX2 analytically  !
 ! R86   R(37,84)                1.0946         calculate D2E/DX2 analytically  !
 ! R87   R(37,85)                1.0945         calculate D2E/DX2 analytically  !
 ! R88   R(38,40)                1.5222         calculate D2E/DX2 analytically  !
 ! R89   R(38,86)                1.0992         calculate D2E/DX2 analytically  !
 ! R90   R(38,87)                1.0949         calculate D2E/DX2 analytically  !
 ! R91   R(39,41)                1.5234         calculate D2E/DX2 analytically  !
 ! R92   R(39,88)                1.097          calculate D2E/DX2 analytically  !
 ! R93   R(39,89)                1.0938         calculate D2E/DX2 analytically  !
 ! R94   R(40,41)                1.5233         calculate D2E/DX2 analytically  !
 ! R95   R(40,90)                1.0944         calculate D2E/DX2 analytically  !
 ! R96   R(40,91)                1.0986         calculate D2E/DX2 analytically  !
 ! R97   R(41,92)                1.0944         calculate D2E/DX2 analytically  !
 ! R98   R(41,93)                1.0981         calculate D2E/DX2 analytically  !
 ! A1    A(2,1,3)               87.0756         calculate D2E/DX2 analytically  !
 ! A2    A(2,1,4)               93.4119         calculate D2E/DX2 analytically  !
 ! A3    A(3,1,5)               94.1938         calculate D2E/DX2 analytically  !
 ! A4    A(4,1,5)               86.2445         calculate D2E/DX2 analytically  !
 ! A5    A(1,2,8)              128.6268         calculate D2E/DX2 analytically  !
 ! A6    A(1,3,9)              128.1484         calculate D2E/DX2 analytically  !
 ! A7    A(1,4,22)             127.0645         calculate D2E/DX2 analytically  !
 ! A8    A(1,4,24)             112.5283         calculate D2E/DX2 analytically  !
 ! A9    A(22,4,24)            120.2855         calculate D2E/DX2 analytically  !
 ! A10   A(1,5,23)             125.918          calculate D2E/DX2 analytically  !
 ! A11   A(1,5,25)             111.9731         calculate D2E/DX2 analytically  !
 ! A12   A(23,5,25)            121.8729         calculate D2E/DX2 analytically  !
 ! A13   A(8,6,14)             120.274          calculate D2E/DX2 analytically  !
 ! A14   A(8,6,16)             118.2393         calculate D2E/DX2 analytically  !
 ! A15   A(14,6,16)            121.4822         calculate D2E/DX2 analytically  !
 ! A16   A(9,7,15)             120.1366         calculate D2E/DX2 analytically  !
 ! A17   A(9,7,17)             118.4953         calculate D2E/DX2 analytically  !
 ! A18   A(15,7,17)            121.3488         calculate D2E/DX2 analytically  !
 ! A19   A(2,8,6)              119.1578         calculate D2E/DX2 analytically  !
 ! A20   A(2,8,10)             123.0311         calculate D2E/DX2 analytically  !
 ! A21   A(6,8,10)             117.8107         calculate D2E/DX2 analytically  !
 ! A22   A(3,9,7)              119.416          calculate D2E/DX2 analytically  !
 ! A23   A(3,9,11)             122.7698         calculate D2E/DX2 analytically  !
 ! A24   A(7,9,11)             117.814          calculate D2E/DX2 analytically  !
 ! A25   A(8,10,18)            120.6358         calculate D2E/DX2 analytically  !
 ! A26   A(8,10,22)            122.1329         calculate D2E/DX2 analytically  !
 ! A27   A(18,10,22)           117.2313         calculate D2E/DX2 analytically  !
 ! A28   A(9,11,19)            120.3656         calculate D2E/DX2 analytically  !
 ! A29   A(9,11,23)            122.6231         calculate D2E/DX2 analytically  !
 ! A30   A(19,11,23)           117.0094         calculate D2E/DX2 analytically  !
 ! A31   A(16,12,18)           116.7609         calculate D2E/DX2 analytically  !
 ! A32   A(16,12,20)           119.4143         calculate D2E/DX2 analytically  !
 ! A33   A(18,12,20)           123.8248         calculate D2E/DX2 analytically  !
 ! A34   A(17,13,19)           116.6038         calculate D2E/DX2 analytically  !
 ! A35   A(17,13,21)           123.0089         calculate D2E/DX2 analytically  !
 ! A36   A(19,13,21)           120.3862         calculate D2E/DX2 analytically  !
 ! A37   A(6,14,26)            110.7704         calculate D2E/DX2 analytically  !
 ! A38   A(6,14,27)            109.7044         calculate D2E/DX2 analytically  !
 ! A39   A(6,14,28)            111.9647         calculate D2E/DX2 analytically  !
 ! A40   A(26,14,27)           109.4726         calculate D2E/DX2 analytically  !
 ! A41   A(26,14,28)           107.3683         calculate D2E/DX2 analytically  !
 ! A42   A(27,14,28)           107.4624         calculate D2E/DX2 analytically  !
 ! A43   A(7,15,29)            110.9563         calculate D2E/DX2 analytically  !
 ! A44   A(7,15,30)            112.0825         calculate D2E/DX2 analytically  !
 ! A45   A(7,15,31)            109.4476         calculate D2E/DX2 analytically  !
 ! A46   A(29,15,30)           107.354          calculate D2E/DX2 analytically  !
 ! A47   A(29,15,31)           109.5362         calculate D2E/DX2 analytically  !
 ! A48   A(30,15,31)           107.3638         calculate D2E/DX2 analytically  !
 ! A49   A(6,16,12)            124.6811         calculate D2E/DX2 analytically  !
 ! A50   A(6,16,42)            118.1344         calculate D2E/DX2 analytically  !
 ! A51   A(12,16,42)           117.1844         calculate D2E/DX2 analytically  !
 ! A52   A(7,17,13)            124.4254         calculate D2E/DX2 analytically  !
 ! A53   A(7,17,43)            117.7497         calculate D2E/DX2 analytically  !
 ! A54   A(13,17,43)           117.8246         calculate D2E/DX2 analytically  !
 ! A55   A(10,18,12)           121.8676         calculate D2E/DX2 analytically  !
 ! A56   A(10,18,44)           117.1509         calculate D2E/DX2 analytically  !
 ! A57   A(12,18,44)           120.9816         calculate D2E/DX2 analytically  !
 ! A58   A(11,19,13)           122.2561         calculate D2E/DX2 analytically  !
 ! A59   A(11,19,45)           117.3924         calculate D2E/DX2 analytically  !
 ! A60   A(13,19,45)           120.3509         calculate D2E/DX2 analytically  !
 ! A61   A(12,20,32)           111.9421         calculate D2E/DX2 analytically  !
 ! A62   A(12,20,33)           109.5971         calculate D2E/DX2 analytically  !
 ! A63   A(12,20,34)           109.4966         calculate D2E/DX2 analytically  !
 ! A64   A(32,20,33)           108.3987         calculate D2E/DX2 analytically  !
 ! A65   A(32,20,34)           108.4565         calculate D2E/DX2 analytically  !
 ! A66   A(33,20,34)           108.8909         calculate D2E/DX2 analytically  !
 ! A67   A(13,21,35)           109.5752         calculate D2E/DX2 analytically  !
 ! A68   A(13,21,36)           109.4347         calculate D2E/DX2 analytically  !
 ! A69   A(13,21,37)           112.3045         calculate D2E/DX2 analytically  !
 ! A70   A(35,21,36)           108.8451         calculate D2E/DX2 analytically  !
 ! A71   A(35,21,37)           108.2787         calculate D2E/DX2 analytically  !
 ! A72   A(36,21,37)           108.3332         calculate D2E/DX2 analytically  !
 ! A73   A(4,22,10)            125.6998         calculate D2E/DX2 analytically  !
 ! A74   A(4,22,46)            117.7132         calculate D2E/DX2 analytically  !
 ! A75   A(10,22,46)           116.5868         calculate D2E/DX2 analytically  !
 ! A76   A(5,23,11)            125.9564         calculate D2E/DX2 analytically  !
 ! A77   A(5,23,47)            118.6139         calculate D2E/DX2 analytically  !
 ! A78   A(11,23,47)           115.429          calculate D2E/DX2 analytically  !
 ! A79   A(4,24,25)            106.4721         calculate D2E/DX2 analytically  !
 ! A80   A(4,24,38)            109.6626         calculate D2E/DX2 analytically  !
 ! A81   A(4,24,48)            110.0215         calculate D2E/DX2 analytically  !
 ! A82   A(25,24,38)           111.5031         calculate D2E/DX2 analytically  !
 ! A83   A(25,24,48)           109.4079         calculate D2E/DX2 analytically  !
 ! A84   A(38,24,48)           109.723          calculate D2E/DX2 analytically  !
 ! A85   A(5,25,24)            105.4581         calculate D2E/DX2 analytically  !
 ! A86   A(5,25,39)            116.686          calculate D2E/DX2 analytically  !
 ! A87   A(5,25,49)            105.5772         calculate D2E/DX2 analytically  !
 ! A88   A(24,25,39)           111.6051         calculate D2E/DX2 analytically  !
 ! A89   A(24,25,49)           107.7483         calculate D2E/DX2 analytically  !
 ! A90   A(39,25,49)           109.2686         calculate D2E/DX2 analytically  !
 ! A91   A(14,26,50)           109.9307         calculate D2E/DX2 analytically  !
 ! A92   A(14,26,51)           111.4838         calculate D2E/DX2 analytically  !
 ! A93   A(14,26,52)           110.9817         calculate D2E/DX2 analytically  !
 ! A94   A(50,26,51)           108.4147         calculate D2E/DX2 analytically  !
 ! A95   A(50,26,52)           107.4657         calculate D2E/DX2 analytically  !
 ! A96   A(51,26,52)           108.4393         calculate D2E/DX2 analytically  !
 ! A97   A(14,27,53)           110.8591         calculate D2E/DX2 analytically  !
 ! A98   A(14,27,54)           111.5451         calculate D2E/DX2 analytically  !
 ! A99   A(14,27,55)           110.2221         calculate D2E/DX2 analytically  !
 ! A100  A(53,27,54)           108.3573         calculate D2E/DX2 analytically  !
 ! A101  A(53,27,55)           107.5489         calculate D2E/DX2 analytically  !
 ! A102  A(54,27,55)           108.1761         calculate D2E/DX2 analytically  !
 ! A103  A(14,28,56)           109.2619         calculate D2E/DX2 analytically  !
 ! A104  A(14,28,57)           112.2503         calculate D2E/DX2 analytically  !
 ! A105  A(14,28,58)           112.4237         calculate D2E/DX2 analytically  !
 ! A106  A(56,28,57)           107.3914         calculate D2E/DX2 analytically  !
 ! A107  A(56,28,58)           107.3115         calculate D2E/DX2 analytically  !
 ! A108  A(57,28,58)           107.9634         calculate D2E/DX2 analytically  !
 ! A109  A(15,29,59)           109.9663         calculate D2E/DX2 analytically  !
 ! A110  A(15,29,60)           111.5362         calculate D2E/DX2 analytically  !
 ! A111  A(15,29,61)           110.941          calculate D2E/DX2 analytically  !
 ! A112  A(59,29,60)           108.3971         calculate D2E/DX2 analytically  !
 ! A113  A(59,29,61)           107.4518         calculate D2E/DX2 analytically  !
 ! A114  A(60,29,61)           108.4209         calculate D2E/DX2 analytically  !
 ! A115  A(15,30,62)           109.2512         calculate D2E/DX2 analytically  !
 ! A116  A(15,30,63)           112.3105         calculate D2E/DX2 analytically  !
 ! A117  A(15,30,64)           112.4069         calculate D2E/DX2 analytically  !
 ! A118  A(62,30,63)           107.3636         calculate D2E/DX2 analytically  !
 ! A119  A(62,30,64)           107.299          calculate D2E/DX2 analytically  !
 ! A120  A(63,30,64)           107.9673         calculate D2E/DX2 analytically  !
 ! A121  A(15,31,65)           110.7899         calculate D2E/DX2 analytically  !
 ! A122  A(15,31,66)           111.5802         calculate D2E/DX2 analytically  !
 ! A123  A(15,31,67)           110.2842         calculate D2E/DX2 analytically  !
 ! A124  A(65,31,66)           108.3597         calculate D2E/DX2 analytically  !
 ! A125  A(65,31,67)           107.5469         calculate D2E/DX2 analytically  !
 ! A126  A(66,31,67)           108.1463         calculate D2E/DX2 analytically  !
 ! A127  A(20,32,68)           109.8835         calculate D2E/DX2 analytically  !
 ! A128  A(20,32,69)           111.9911         calculate D2E/DX2 analytically  !
 ! A129  A(20,32,70)           111.9408         calculate D2E/DX2 analytically  !
 ! A130  A(68,32,69)           107.4583         calculate D2E/DX2 analytically  !
 ! A131  A(68,32,70)           107.4665         calculate D2E/DX2 analytically  !
 ! A132  A(69,32,70)           107.8923         calculate D2E/DX2 analytically  !
 ! A133  A(20,33,71)           110.5624         calculate D2E/DX2 analytically  !
 ! A134  A(20,33,72)           111.2204         calculate D2E/DX2 analytically  !
 ! A135  A(20,33,73)           111.8526         calculate D2E/DX2 analytically  !
 ! A136  A(71,33,72)           107.7893         calculate D2E/DX2 analytically  !
 ! A137  A(71,33,73)           107.475          calculate D2E/DX2 analytically  !
 ! A138  A(72,33,73)           107.7606         calculate D2E/DX2 analytically  !
 ! A139  A(20,34,74)           111.801          calculate D2E/DX2 analytically  !
 ! A140  A(20,34,75)           111.2017         calculate D2E/DX2 analytically  !
 ! A141  A(20,34,76)           110.5961         calculate D2E/DX2 analytically  !
 ! A142  A(74,34,75)           107.7434         calculate D2E/DX2 analytically  !
 ! A143  A(74,34,76)           107.5181         calculate D2E/DX2 analytically  !
 ! A144  A(75,34,76)           107.8029         calculate D2E/DX2 analytically  !
 ! A145  A(21,35,77)           110.6421         calculate D2E/DX2 analytically  !
 ! A146  A(21,35,78)           111.7233         calculate D2E/DX2 analytically  !
 ! A147  A(21,35,79)           111.227          calculate D2E/DX2 analytically  !
 ! A148  A(77,35,78)           107.5436         calculate D2E/DX2 analytically  !
 ! A149  A(77,35,79)           107.7832         calculate D2E/DX2 analytically  !
 ! A150  A(78,35,79)           107.7447         calculate D2E/DX2 analytically  !
 ! A151  A(21,36,80)           111.2235         calculate D2E/DX2 analytically  !
 ! A152  A(21,36,81)           111.6553         calculate D2E/DX2 analytically  !
 ! A153  A(21,36,82)           110.6743         calculate D2E/DX2 analytically  !
 ! A154  A(80,36,81)           107.743          calculate D2E/DX2 analytically  !
 ! A155  A(80,36,82)           107.7844         calculate D2E/DX2 analytically  !
 ! A156  A(81,36,82)           107.5862         calculate D2E/DX2 analytically  !
 ! A157  A(21,37,83)           109.74           calculate D2E/DX2 analytically  !
 ! A158  A(21,37,84)           112.0722         calculate D2E/DX2 analytically  !
 ! A159  A(21,37,85)           112.1064         calculate D2E/DX2 analytically  !
 ! A160  A(83,37,84)           107.396          calculate D2E/DX2 analytically  !
 ! A161  A(83,37,85)           107.4029         calculate D2E/DX2 analytically  !
 ! A162  A(84,37,85)           107.9025         calculate D2E/DX2 analytically  !
 ! A163  A(24,38,40)           111.7576         calculate D2E/DX2 analytically  !
 ! A164  A(24,38,86)           108.1943         calculate D2E/DX2 analytically  !
 ! A165  A(24,38,87)           108.9021         calculate D2E/DX2 analytically  !
 ! A166  A(40,38,86)           109.7321         calculate D2E/DX2 analytically  !
 ! A167  A(40,38,87)           111.4273         calculate D2E/DX2 analytically  !
 ! A168  A(86,38,87)           106.6455         calculate D2E/DX2 analytically  !
 ! A169  A(25,39,41)           112.7985         calculate D2E/DX2 analytically  !
 ! A170  A(25,39,88)           106.5131         calculate D2E/DX2 analytically  !
 ! A171  A(25,39,89)           110.656          calculate D2E/DX2 analytically  !
 ! A172  A(41,39,88)           109.2533         calculate D2E/DX2 analytically  !
 ! A173  A(41,39,89)           111.6911         calculate D2E/DX2 analytically  !
 ! A174  A(88,39,89)           105.526          calculate D2E/DX2 analytically  !
 ! A175  A(38,40,41)           110.8729         calculate D2E/DX2 analytically  !
 ! A176  A(38,40,90)           109.8614         calculate D2E/DX2 analytically  !
 ! A177  A(38,40,91)           109.4921         calculate D2E/DX2 analytically  !
 ! A178  A(41,40,90)           110.7232         calculate D2E/DX2 analytically  !
 ! A179  A(41,40,91)           109.3304         calculate D2E/DX2 analytically  !
 ! A180  A(90,40,91)           106.4545         calculate D2E/DX2 analytically  !
 ! A181  A(39,41,40)           110.5834         calculate D2E/DX2 analytically  !
 ! A182  A(39,41,92)           109.7445         calculate D2E/DX2 analytically  !
 ! A183  A(39,41,93)           109.9871         calculate D2E/DX2 analytically  !
 ! A184  A(40,41,92)           110.6827         calculate D2E/DX2 analytically  !
 ! A185  A(40,41,93)           109.3993         calculate D2E/DX2 analytically  !
 ! A186  A(92,41,93)           106.3554         calculate D2E/DX2 analytically  !
 ! A187  L(2,1,5,4,-1)         179.6565         calculate D2E/DX2 analytically  !
 ! A188  L(3,1,4,5,-1)         180.4383         calculate D2E/DX2 analytically  !
 ! A189  L(2,1,5,4,-2)         187.8365         calculate D2E/DX2 analytically  !
 ! A190  L(3,1,4,5,-2)         186.8108         calculate D2E/DX2 analytically  !
 ! D1    D(3,1,2,8)            175.2422         calculate D2E/DX2 analytically  !
 ! D2    D(4,1,2,8)              2.0436         calculate D2E/DX2 analytically  !
 ! D3    D(2,1,3,9)            178.7203         calculate D2E/DX2 analytically  !
 ! D4    D(5,1,3,9)              6.4605         calculate D2E/DX2 analytically  !
 ! D5    D(2,1,4,22)            -0.9414         calculate D2E/DX2 analytically  !
 ! D6    D(2,1,4,24)           175.0175         calculate D2E/DX2 analytically  !
 ! D7    D(5,1,4,22)           171.2221         calculate D2E/DX2 analytically  !
 ! D8    D(5,1,4,24)           -12.819          calculate D2E/DX2 analytically  !
 ! D9    D(3,1,5,23)            -1.5341         calculate D2E/DX2 analytically  !
 ! D10   D(3,1,5,25)           172.9368         calculate D2E/DX2 analytically  !
 ! D11   D(4,1,5,23)           171.6552         calculate D2E/DX2 analytically  !
 ! D12   D(4,1,5,25)           -13.874          calculate D2E/DX2 analytically  !
 ! D13   D(1,2,8,6)            177.7571         calculate D2E/DX2 analytically  !
 ! D14   D(1,2,8,10)            -2.0107         calculate D2E/DX2 analytically  !
 ! D15   D(1,3,9,7)            172.2371         calculate D2E/DX2 analytically  !
 ! D16   D(1,3,9,11)            -7.591          calculate D2E/DX2 analytically  !
 ! D17   D(1,4,22,10)           -0.1534         calculate D2E/DX2 analytically  !
 ! D18   D(1,4,22,46)          179.7228         calculate D2E/DX2 analytically  !
 ! D19   D(24,4,22,10)        -175.8302         calculate D2E/DX2 analytically  !
 ! D20   D(24,4,22,46)           4.046          calculate D2E/DX2 analytically  !
 ! D21   D(1,4,24,25)           35.0375         calculate D2E/DX2 analytically  !
 ! D22   D(1,4,24,38)          -85.7303         calculate D2E/DX2 analytically  !
 ! D23   D(1,4,24,48)          153.4976         calculate D2E/DX2 analytically  !
 ! D24   D(22,4,24,25)        -148.6963         calculate D2E/DX2 analytically  !
 ! D25   D(22,4,24,38)          90.5359         calculate D2E/DX2 analytically  !
 ! D26   D(22,4,24,48)         -30.2362         calculate D2E/DX2 analytically  !
 ! D27   D(1,5,23,11)           -2.1748         calculate D2E/DX2 analytically  !
 ! D28   D(1,5,23,47)          178.1433         calculate D2E/DX2 analytically  !
 ! D29   D(25,5,23,11)        -176.1351         calculate D2E/DX2 analytically  !
 ! D30   D(25,5,23,47)           4.1829         calculate D2E/DX2 analytically  !
 ! D31   D(1,5,25,24)           35.3783         calculate D2E/DX2 analytically  !
 ! D32   D(1,5,25,39)          159.8897         calculate D2E/DX2 analytically  !
 ! D33   D(1,5,25,49)          -78.5398         calculate D2E/DX2 analytically  !
 ! D34   D(23,5,25,24)        -149.8938         calculate D2E/DX2 analytically  !
 ! D35   D(23,5,25,39)         -25.3824         calculate D2E/DX2 analytically  !
 ! D36   D(23,5,25,49)          96.1881         calculate D2E/DX2 analytically  !
 ! D37   D(14,6,8,2)            -1.3238         calculate D2E/DX2 analytically  !
 ! D38   D(14,6,8,10)          178.4561         calculate D2E/DX2 analytically  !
 ! D39   D(16,6,8,2)           179.4313         calculate D2E/DX2 analytically  !
 ! D40   D(16,6,8,10)           -0.7888         calculate D2E/DX2 analytically  !
 ! D41   D(8,6,14,26)           58.742          calculate D2E/DX2 analytically  !
 ! D42   D(8,6,14,27)          -62.2243         calculate D2E/DX2 analytically  !
 ! D43   D(8,6,14,28)          178.5579         calculate D2E/DX2 analytically  !
 ! D44   D(16,6,14,26)        -122.038          calculate D2E/DX2 analytically  !
 ! D45   D(16,6,14,27)         116.9956         calculate D2E/DX2 analytically  !
 ! D46   D(16,6,14,28)          -2.2222         calculate D2E/DX2 analytically  !
 ! D47   D(8,6,16,12)            0.455          calculate D2E/DX2 analytically  !
 ! D48   D(8,6,16,42)         -179.6665         calculate D2E/DX2 analytically  !
 ! D49   D(14,6,16,12)        -178.7803         calculate D2E/DX2 analytically  !
 ! D50   D(14,6,16,42)           1.0981         calculate D2E/DX2 analytically  !
 ! D51   D(15,7,9,3)            -3.4665         calculate D2E/DX2 analytically  !
 ! D52   D(15,7,9,11)          176.3701         calculate D2E/DX2 analytically  !
 ! D53   D(17,7,9,3)           178.1045         calculate D2E/DX2 analytically  !
 ! D54   D(17,7,9,11)           -2.0589         calculate D2E/DX2 analytically  !
 ! D55   D(9,7,15,29)           59.6554         calculate D2E/DX2 analytically  !
 ! D56   D(9,7,15,30)          179.6598         calculate D2E/DX2 analytically  !
 ! D57   D(9,7,15,31)          -61.3409         calculate D2E/DX2 analytically  !
 ! D58   D(17,7,15,29)        -121.9613         calculate D2E/DX2 analytically  !
 ! D59   D(17,7,15,30)          -1.957          calculate D2E/DX2 analytically  !
 ! D60   D(17,7,15,31)         117.0423         calculate D2E/DX2 analytically  !
 ! D61   D(9,7,17,13)            0.6035         calculate D2E/DX2 analytically  !
 ! D62   D(9,7,17,43)         -179.6221         calculate D2E/DX2 analytically  !
 ! D63   D(15,7,17,13)        -177.8056         calculate D2E/DX2 analytically  !
 ! D64   D(15,7,17,43)           1.9689         calculate D2E/DX2 analytically  !
 ! D65   D(2,8,10,18)         -179.6329         calculate D2E/DX2 analytically  !
 ! D66   D(2,8,10,22)            0.37           calculate D2E/DX2 analytically  !
 ! D67   D(6,8,10,18)            0.5964         calculate D2E/DX2 analytically  !
 ! D68   D(6,8,10,22)         -179.4008         calculate D2E/DX2 analytically  !
 ! D69   D(3,9,11,19)         -177.9565         calculate D2E/DX2 analytically  !
 ! D70   D(3,9,11,23)            2.5546         calculate D2E/DX2 analytically  !
 ! D71   D(7,9,11,19)            2.2128         calculate D2E/DX2 analytically  !
 ! D72   D(7,9,11,23)         -177.2761         calculate D2E/DX2 analytically  !
 ! D73   D(8,10,18,12)          -0.0239         calculate D2E/DX2 analytically  !
 ! D74   D(8,10,18,44)         179.9125         calculate D2E/DX2 analytically  !
 ! D75   D(22,10,18,12)        179.9734         calculate D2E/DX2 analytically  !
 ! D76   D(22,10,18,44)         -0.0902         calculate D2E/DX2 analytically  !
 ! D77   D(8,10,22,4)            0.7541         calculate D2E/DX2 analytically  !
 ! D78   D(8,10,22,46)        -179.1233         calculate D2E/DX2 analytically  !
 ! D79   D(18,10,22,4)        -179.2431         calculate D2E/DX2 analytically  !
 ! D80   D(18,10,22,46)          0.8795         calculate D2E/DX2 analytically  !
 ! D81   D(9,11,19,13)          -0.8635         calculate D2E/DX2 analytically  !
 ! D82   D(9,11,19,45)         179.4186         calculate D2E/DX2 analytically  !
 ! D83   D(23,11,19,13)        178.6534         calculate D2E/DX2 analytically  !
 ! D84   D(23,11,19,45)         -1.0646         calculate D2E/DX2 analytically  !
 ! D85   D(9,11,23,5)            2.5524         calculate D2E/DX2 analytically  !
 ! D86   D(9,11,23,47)        -177.7567         calculate D2E/DX2 analytically  !
 ! D87   D(19,11,23,5)        -176.9526         calculate D2E/DX2 analytically  !
 ! D88   D(19,11,23,47)          2.7382         calculate D2E/DX2 analytically  !
 ! D89   D(18,12,16,6)           0.1173         calculate D2E/DX2 analytically  !
 ! D90   D(18,12,16,42)       -179.7623         calculate D2E/DX2 analytically  !
 ! D91   D(20,12,16,6)        -179.9499         calculate D2E/DX2 analytically  !
 ! D92   D(20,12,16,42)          0.1705         calculate D2E/DX2 analytically  !
 ! D93   D(16,12,18,10)         -0.3361         calculate D2E/DX2 analytically  !
 ! D94   D(16,12,18,44)        179.7299         calculate D2E/DX2 analytically  !
 ! D95   D(20,12,18,10)        179.7344         calculate D2E/DX2 analytically  !
 ! D96   D(20,12,18,44)         -0.1997         calculate D2E/DX2 analytically  !
 ! D97   D(16,12,20,32)       -179.2384         calculate D2E/DX2 analytically  !
 ! D98   D(16,12,20,33)        -58.9319         calculate D2E/DX2 analytically  !
 ! D99   D(16,12,20,34)         60.4503         calculate D2E/DX2 analytically  !
 ! D100  D(18,12,20,32)          0.6894         calculate D2E/DX2 analytically  !
 ! D101  D(18,12,20,33)        120.9959         calculate D2E/DX2 analytically  !
 ! D102  D(18,12,20,34)       -119.6219         calculate D2E/DX2 analytically  !
 ! D103  D(19,13,17,7)           0.7722         calculate D2E/DX2 analytically  !
 ! D104  D(19,13,17,43)       -179.0021         calculate D2E/DX2 analytically  !
 ! D105  D(21,13,17,7)        -179.6007         calculate D2E/DX2 analytically  !
 ! D106  D(21,13,17,43)          0.625          calculate D2E/DX2 analytically  !
 ! D107  D(17,13,19,11)         -0.6344         calculate D2E/DX2 analytically  !
 ! D108  D(17,13,19,45)        179.0754         calculate D2E/DX2 analytically  !
 ! D109  D(21,13,19,11)        179.7281         calculate D2E/DX2 analytically  !
 ! D110  D(21,13,19,45)         -0.5621         calculate D2E/DX2 analytically  !
 ! D111  D(17,13,21,35)       -121.0515         calculate D2E/DX2 analytically  !
 ! D112  D(17,13,21,36)        119.6732         calculate D2E/DX2 analytically  !
 ! D113  D(17,13,21,37)         -0.6756         calculate D2E/DX2 analytically  !
 ! D114  D(19,13,21,35)         58.5619         calculate D2E/DX2 analytically  !
 ! D115  D(19,13,21,36)        -60.7133         calculate D2E/DX2 analytically  !
 ! D116  D(19,13,21,37)        178.9379         calculate D2E/DX2 analytically  !
 ! D117  D(6,14,26,50)         177.4461         calculate D2E/DX2 analytically  !
 ! D118  D(6,14,26,51)         -62.3007         calculate D2E/DX2 analytically  !
 ! D119  D(6,14,26,52)          58.6964         calculate D2E/DX2 analytically  !
 ! D120  D(27,14,26,50)        -61.4504         calculate D2E/DX2 analytically  !
 ! D121  D(27,14,26,51)         58.8028         calculate D2E/DX2 analytically  !
 ! D122  D(27,14,26,52)        179.7999         calculate D2E/DX2 analytically  !
 ! D123  D(28,14,26,50)         54.9141         calculate D2E/DX2 analytically  !
 ! D124  D(28,14,26,51)        175.1673         calculate D2E/DX2 analytically  !
 ! D125  D(28,14,26,52)        -63.8356         calculate D2E/DX2 analytically  !
 ! D126  D(6,14,27,53)         -61.7118         calculate D2E/DX2 analytically  !
 ! D127  D(6,14,27,54)          59.1383         calculate D2E/DX2 analytically  !
 ! D128  D(6,14,27,55)         179.3263         calculate D2E/DX2 analytically  !
 ! D129  D(26,14,27,53)        176.5415         calculate D2E/DX2 analytically  !
 ! D130  D(26,14,27,54)        -62.6084         calculate D2E/DX2 analytically  !
 ! D131  D(26,14,27,55)         57.5797         calculate D2E/DX2 analytically  !
 ! D132  D(28,14,27,53)         60.2366         calculate D2E/DX2 analytically  !
 ! D133  D(28,14,27,54)       -178.9133         calculate D2E/DX2 analytically  !
 ! D134  D(28,14,27,55)        -58.7253         calculate D2E/DX2 analytically  !
 ! D135  D(6,14,28,56)        -179.9447         calculate D2E/DX2 analytically  !
 ! D136  D(6,14,28,57)         -60.9283         calculate D2E/DX2 analytically  !
 ! D137  D(6,14,28,58)          61.03           calculate D2E/DX2 analytically  !
 ! D138  D(26,14,28,56)        -58.1558         calculate D2E/DX2 analytically  !
 ! D139  D(26,14,28,57)         60.8606         calculate D2E/DX2 analytically  !
 ! D140  D(26,14,28,58)       -177.1812         calculate D2E/DX2 analytically  !
 ! D141  D(27,14,28,56)         59.5251         calculate D2E/DX2 analytically  !
 ! D142  D(27,14,28,57)        178.5415         calculate D2E/DX2 analytically  !
 ! D143  D(27,14,28,58)        -59.5003         calculate D2E/DX2 analytically  !
 ! D144  D(7,15,29,59)         177.9614         calculate D2E/DX2 analytically  !
 ! D145  D(7,15,29,60)         -61.7498         calculate D2E/DX2 analytically  !
 ! D146  D(7,15,29,61)          59.2316         calculate D2E/DX2 analytically  !
 ! D147  D(30,15,29,59)         55.1789         calculate D2E/DX2 analytically  !
 ! D148  D(30,15,29,60)        175.4677         calculate D2E/DX2 analytically  !
 ! D149  D(30,15,29,61)        -63.5509         calculate D2E/DX2 analytically  !
 ! D150  D(31,15,29,59)        -61.0945         calculate D2E/DX2 analytically  !
 ! D151  D(31,15,29,60)         59.1943         calculate D2E/DX2 analytically  !
 ! D152  D(31,15,29,61)       -179.8243         calculate D2E/DX2 analytically  !
 ! D153  D(7,15,30,62)         179.6785         calculate D2E/DX2 analytically  !
 ! D154  D(7,15,30,63)         -61.3092         calculate D2E/DX2 analytically  !
 ! D155  D(7,15,30,64)          60.6864         calculate D2E/DX2 analytically  !
 ! D156  D(29,15,30,62)        -58.2379         calculate D2E/DX2 analytically  !
 ! D157  D(29,15,30,63)         60.7744         calculate D2E/DX2 analytically  !
 ! D158  D(29,15,30,64)       -177.2299         calculate D2E/DX2 analytically  !
 ! D159  D(31,15,30,62)         59.4589         calculate D2E/DX2 analytically  !
 ! D160  D(31,15,30,63)        178.4712         calculate D2E/DX2 analytically  !
 ! D161  D(31,15,30,64)        -59.5331         calculate D2E/DX2 analytically  !
 ! D162  D(7,15,31,65)         -62.0254         calculate D2E/DX2 analytically  !
 ! D163  D(7,15,31,66)          58.804          calculate D2E/DX2 analytically  !
 ! D164  D(7,15,31,67)         179.0194         calculate D2E/DX2 analytically  !
 ! D165  D(29,15,31,65)        176.121          calculate D2E/DX2 analytically  !
 ! D166  D(29,15,31,66)        -63.0497         calculate D2E/DX2 analytically  !
 ! D167  D(29,15,31,67)         57.1657         calculate D2E/DX2 analytically  !
 ! D168  D(30,15,31,65)         59.8538         calculate D2E/DX2 analytically  !
 ! D169  D(30,15,31,66)       -179.3168         calculate D2E/DX2 analytically  !
 ! D170  D(30,15,31,67)        -59.1014         calculate D2E/DX2 analytically  !
 ! D171  D(12,20,32,68)        179.865          calculate D2E/DX2 analytically  !
 ! D172  D(12,20,32,69)        -60.7865         calculate D2E/DX2 analytically  !
 ! D173  D(12,20,32,70)         60.5383         calculate D2E/DX2 analytically  !
 ! D174  D(33,20,32,68)         58.8623         calculate D2E/DX2 analytically  !
 ! D175  D(33,20,32,69)        178.2108         calculate D2E/DX2 analytically  !
 ! D176  D(33,20,32,70)        -60.4644         calculate D2E/DX2 analytically  !
 ! D177  D(34,20,32,68)        -59.2193         calculate D2E/DX2 analytically  !
 ! D178  D(34,20,32,69)         60.1293         calculate D2E/DX2 analytically  !
 ! D179  D(34,20,32,70)       -178.5459         calculate D2E/DX2 analytically  !
 ! D180  D(12,20,33,71)        179.5756         calculate D2E/DX2 analytically  !
 ! D181  D(12,20,33,72)        -60.7087         calculate D2E/DX2 analytically  !
 ! D182  D(12,20,33,73)         59.8404         calculate D2E/DX2 analytically  !
 ! D183  D(32,20,33,71)        -57.9828         calculate D2E/DX2 analytically  !
 ! D184  D(32,20,33,72)         61.7329         calculate D2E/DX2 analytically  !
 ! D185  D(32,20,33,73)       -177.718          calculate D2E/DX2 analytically  !
 ! D186  D(34,20,33,71)         59.8219         calculate D2E/DX2 analytically  !
 ! D187  D(34,20,33,72)        179.5375         calculate D2E/DX2 analytically  !
 ! D188  D(34,20,33,73)        -59.9134         calculate D2E/DX2 analytically  !
 ! D189  D(12,20,34,74)        -59.4836         calculate D2E/DX2 analytically  !
 ! D190  D(12,20,34,75)         60.9953         calculate D2E/DX2 analytically  !
 ! D191  D(12,20,34,76)       -179.2619         calculate D2E/DX2 analytically  !
 ! D192  D(32,20,34,74)        178.1007         calculate D2E/DX2 analytically  !
 ! D193  D(32,20,34,75)        -61.4205         calculate D2E/DX2 analytically  !
 ! D194  D(32,20,34,76)         58.3224         calculate D2E/DX2 analytically  !
 ! D195  D(33,20,34,74)         60.3325         calculate D2E/DX2 analytically  !
 ! D196  D(33,20,34,75)       -179.1886         calculate D2E/DX2 analytically  !
 ! D197  D(33,20,34,76)        -59.4458         calculate D2E/DX2 analytically  !
 ! D198  D(13,21,35,77)       -179.5613         calculate D2E/DX2 analytically  !
 ! D199  D(13,21,35,78)        -59.7712         calculate D2E/DX2 analytically  !
 ! D200  D(13,21,35,79)         60.6736         calculate D2E/DX2 analytically  !
 ! D201  D(36,21,35,77)        -59.9237         calculate D2E/DX2 analytically  !
 ! D202  D(36,21,35,78)         59.8664         calculate D2E/DX2 analytically  !
 ! D203  D(36,21,35,79)       -179.6888         calculate D2E/DX2 analytically  !
 ! D204  D(37,21,35,77)         57.6413         calculate D2E/DX2 analytically  !
 ! D205  D(37,21,35,78)        177.4314         calculate D2E/DX2 analytically  !
 ! D206  D(37,21,35,79)        -62.1238         calculate D2E/DX2 analytically  !
 ! D207  D(13,21,36,80)        -60.7512         calculate D2E/DX2 analytically  !
 ! D208  D(13,21,36,81)         59.6425         calculate D2E/DX2 analytically  !
 ! D209  D(13,21,36,82)        179.4631         calculate D2E/DX2 analytically  !
 ! D210  D(35,21,36,80)        179.5239         calculate D2E/DX2 analytically  !
 ! D211  D(35,21,36,81)        -60.0824         calculate D2E/DX2 analytically  !
 ! D212  D(35,21,36,82)         59.7382         calculate D2E/DX2 analytically  !
 ! D213  D(37,21,36,80)         61.9935         calculate D2E/DX2 analytically  !
 ! D214  D(37,21,36,81)       -177.6128         calculate D2E/DX2 analytically  !
 ! D215  D(37,21,36,82)        -57.7922         calculate D2E/DX2 analytically  !
 ! D216  D(13,21,37,83)       -179.9414         calculate D2E/DX2 analytically  !
 ! D217  D(13,21,37,84)        -60.7146         calculate D2E/DX2 analytically  !
 ! D218  D(13,21,37,85)         60.8013         calculate D2E/DX2 analytically  !
 ! D219  D(35,21,37,83)        -58.8182         calculate D2E/DX2 analytically  !
 ! D220  D(35,21,37,84)         60.4086         calculate D2E/DX2 analytically  !
 ! D221  D(35,21,37,85)       -178.0755         calculate D2E/DX2 analytically  !
 ! D222  D(36,21,37,83)         59.0743         calculate D2E/DX2 analytically  !
 ! D223  D(36,21,37,84)        178.3012         calculate D2E/DX2 analytically  !
 ! D224  D(36,21,37,85)        -60.183          calculate D2E/DX2 analytically  !
 ! D225  D(4,24,25,5)          -43.8301         calculate D2E/DX2 analytically  !
 ! D226  D(4,24,25,39)        -171.4691         calculate D2E/DX2 analytically  !
 ! D227  D(4,24,25,49)          68.5686         calculate D2E/DX2 analytically  !
 ! D228  D(38,24,25,5)          75.7488         calculate D2E/DX2 analytically  !
 ! D229  D(38,24,25,39)        -51.8902         calculate D2E/DX2 analytically  !
 ! D230  D(38,24,25,49)       -171.8525         calculate D2E/DX2 analytically  !
 ! D231  D(48,24,25,5)        -162.6925         calculate D2E/DX2 analytically  !
 ! D232  D(48,24,25,39)         69.6685         calculate D2E/DX2 analytically  !
 ! D233  D(48,24,25,49)        -50.2938         calculate D2E/DX2 analytically  !
 ! D234  D(4,24,38,40)         172.0268         calculate D2E/DX2 analytically  !
 ! D235  D(4,24,38,86)          51.1076         calculate D2E/DX2 analytically  !
 ! D236  D(4,24,38,87)         -64.4396         calculate D2E/DX2 analytically  !
 ! D237  D(25,24,38,40)         54.3553         calculate D2E/DX2 analytically  !
 ! D238  D(25,24,38,86)        -66.5639         calculate D2E/DX2 analytically  !
 ! D239  D(25,24,38,87)        177.8888         calculate D2E/DX2 analytically  !
 ! D240  D(48,24,38,40)        -67.0205         calculate D2E/DX2 analytically  !
 ! D241  D(48,24,38,86)        172.0603         calculate D2E/DX2 analytically  !
 ! D242  D(48,24,38,87)         56.5131         calculate D2E/DX2 analytically  !
 ! D243  D(5,25,39,41)         -68.4325         calculate D2E/DX2 analytically  !
 ! D244  D(5,25,39,88)         171.7203         calculate D2E/DX2 analytically  !
 ! D245  D(5,25,39,89)          57.507          calculate D2E/DX2 analytically  !
 ! D246  D(24,25,39,41)         52.894          calculate D2E/DX2 analytically  !
 ! D247  D(24,25,39,88)        -66.9532         calculate D2E/DX2 analytically  !
 ! D248  D(24,25,39,89)        178.8335         calculate D2E/DX2 analytically  !
 ! D249  D(49,25,39,41)        171.9571         calculate D2E/DX2 analytically  !
 ! D250  D(49,25,39,88)         52.1099         calculate D2E/DX2 analytically  !
 ! D251  D(49,25,39,89)        -62.1034         calculate D2E/DX2 analytically  !
 ! D252  D(24,38,40,41)        -56.7346         calculate D2E/DX2 analytically  !
 ! D253  D(24,38,40,90)       -179.4457         calculate D2E/DX2 analytically  !
 ! D254  D(24,38,40,91)         63.981          calculate D2E/DX2 analytically  !
 ! D255  D(86,38,40,41)         63.2865         calculate D2E/DX2 analytically  !
 ! D256  D(86,38,40,90)        -59.4246         calculate D2E/DX2 analytically  !
 ! D257  D(86,38,40,91)       -175.9979         calculate D2E/DX2 analytically  !
 ! D258  D(87,38,40,41)       -178.8298         calculate D2E/DX2 analytically  !
 ! D259  D(87,38,40,90)         58.459          calculate D2E/DX2 analytically  !
 ! D260  D(87,38,40,91)        -58.1142         calculate D2E/DX2 analytically  !
 ! D261  D(25,39,41,40)        -55.0404         calculate D2E/DX2 analytically  !
 ! D262  D(25,39,41,92)       -177.4275         calculate D2E/DX2 analytically  !
 ! D263  D(25,39,41,93)         65.8989         calculate D2E/DX2 analytically  !
 ! D264  D(88,39,41,40)         63.2149         calculate D2E/DX2 analytically  !
 ! D265  D(88,39,41,92)        -59.1723         calculate D2E/DX2 analytically  !
 ! D266  D(88,39,41,93)       -175.8458         calculate D2E/DX2 analytically  !
 ! D267  D(89,39,41,40)        179.579          calculate D2E/DX2 analytically  !
 ! D268  D(89,39,41,92)         57.1918         calculate D2E/DX2 analytically  !
 ! D269  D(89,39,41,93)        -59.4818         calculate D2E/DX2 analytically  !
 ! D270  D(38,40,41,39)         56.3721         calculate D2E/DX2 analytically  !
 ! D271  D(38,40,41,92)        178.2088         calculate D2E/DX2 analytically  !
 ! D272  D(38,40,41,93)        -64.9158         calculate D2E/DX2 analytically  !
 ! D273  D(90,40,41,39)        178.5822         calculate D2E/DX2 analytically  !
 ! D274  D(90,40,41,92)        -59.5811         calculate D2E/DX2 analytically  !
 ! D275  D(90,40,41,93)         57.2944         calculate D2E/DX2 analytically  !
 ! D276  D(91,40,41,39)        -64.4392         calculate D2E/DX2 analytically  !
 ! D277  D(91,40,41,92)         57.3975         calculate D2E/DX2 analytically  !
 ! D278  D(91,40,41,93)        174.2729         calculate D2E/DX2 analytically  !
 --------------------------------------------------------------------------------
 Trust Radius=3.00D-01 FncErr=5.00D-06 GrdErr=5.00D-06 EigMax=2.50D+02 EigMin=1.00D-04
 Number of steps in this run=    558 maximum allowed number of steps=    558.
 GradGradGradGradGradGradGradGradGradGradGradGradGradGradGradGradGradGrad

 Symmetry turned off by external request.
 Stoichiometry    C36H52CoN2O2(4)
 Framework group  C1[X(C36H52CoN2O2)]
 Deg. of freedom   273
 Full point group                 C1      NOp   1
                          Input orientation:                          
 ---------------------------------------------------------------------
 Center     Atomic      Atomic             Coordinates (Angstroms)
 Number     Number       Type             X           Y           Z
 ---------------------------------------------------------------------
      1         27           0       -0.409080   -0.468842   -3.708820
      2          8           0        0.823371   -1.914996   -3.794189
      3          8           0       -1.760688   -1.766235   -3.401745
      4          7           0        0.870527    0.799006   -4.227349
      5          7           0       -1.549067    0.997905   -3.382311
      6          6           0        2.846901   -3.106796   -4.037767
      7          6           0       -3.916335   -2.695706   -3.149079
      8          6           0        2.090248   -1.884961   -4.079632
      9          6           0       -3.029100   -1.570878   -3.194998
     10          6           0        2.782092   -0.682734   -4.433571
     11          6           0       -3.593122   -0.266526   -3.011475
     12          6           0        4.890381   -1.878014   -4.716318
     13          6           0       -5.828137   -1.195618   -2.672466
     14          6           0        2.170438   -4.421397   -3.631166
     15          6           0       -3.383891   -4.108030   -3.421301
     16          6           0        4.193304   -3.054924   -4.357119
     17          6           0       -5.262078   -2.468400   -2.887182
     18          6           0        4.162100   -0.709630   -4.742640
     19          6           0       -4.969600   -0.116071   -2.747760
     20          6           0        6.379539   -1.959492   -5.047334
     21          6           0       -7.315293   -0.983241   -2.377371
     22          6           0        2.124031    0.583466   -4.491285
     23          6           0       -2.812269    0.930678   -3.094150
     24          6           0        0.294481    2.135762   -4.412778
     25          6           0       -0.807967    2.283040   -3.361006
     26          6           0        0.998700   -4.744848   -4.571298
     27          6           0        1.654405   -4.313737   -2.187724
     28          6           0        3.139322   -5.604158   -3.685319
     29          6           0       -2.286445   -4.485235   -2.414100
     30          6           0       -4.482963   -5.167154   -3.316595
     31          6           0       -2.816801   -4.174931   -4.848466
     32          6           0        6.963015   -0.591156   -5.392831
     33          6           0        7.144781   -2.522026   -3.841833
     34          6           0        6.587128   -2.893226   -6.247360
     35          6           0       -7.927100   -0.071884   -3.449473
     36          6           0       -7.472991   -0.311379   -1.006919
     37          6           0       -8.096693   -2.296241   -2.361713
     38          6           0       -0.263161    2.263584   -5.831076
     39          6           0       -1.626661    3.548426   -3.580163
     40          6           0       -1.043923    3.557207   -6.015957
     41          6           0       -2.172446    3.660217   -4.998041
     42          1           0        4.761547   -3.979065   -4.330320
     43          1           0       -5.920419   -3.327343   -2.849075
     44          1           0        4.629991    0.235372   -5.005137
     45          1           0       -5.344918    0.896179   -2.606882
     46          1           0        2.736962    1.441201   -4.786472
     47          1           0       -3.353973    1.858533   -2.897040
     48          1           0        1.062357    2.902331   -4.246143
     49          1           0       -0.326156    2.329317   -2.375220
     50          1           0        0.554395   -5.708172   -4.296687
     51          1           0        0.223325   -3.981059   -4.519956
     52          1           0        1.339153   -4.823818   -5.609734
     53          1           0        2.481218   -4.143982   -1.489570
     54          1           0        0.939117   -3.497812   -2.077916
     55          1           0        1.158407   -5.245271   -1.892275
     56          1           0        2.612428   -6.516280   -3.388931
     57          1           0        3.537093   -5.768461   -4.692022
     58          1           0        3.986666   -5.481318   -3.003441
     59          1           0       -1.943450   -5.509325   -2.600423
     60          1           0       -1.429132   -3.816696   -2.487615
     61          1           0       -2.667510   -4.447989   -1.387523
     62          1           0       -4.055166   -6.152809   -3.524120
     63          1           0       -4.927170   -5.207703   -2.316805
     64          1           0       -5.289676   -5.004017   -4.038114
     65          1           0       -3.600286   -3.976453   -5.587871
     66          1           0       -2.014184   -3.451043   -4.995601
     67          1           0       -2.416314   -5.174597   -5.051678
     68          1           0        8.028742   -0.687932   -5.621280
     69          1           0        6.478385   -0.148198   -6.268523
     70          1           0        6.867882    0.115530   -4.562412
     71          1           0        8.214609   -2.594307   -4.064958
     72          1           0        7.028983   -1.878638   -2.963604
     73          1           0        6.797474   -3.523240   -3.570161
     74          1           0        6.217071   -3.902823   -6.045424
     75          1           0        6.067247   -2.518658   -7.135077
     76          1           0        7.651549   -2.975084   -6.492262
     77          1           0       -8.990749    0.098189   -3.250565
     78          1           0       -7.436602    0.905453   -3.478028
     79          1           0       -7.840345   -0.517999   -4.445527
     80          1           0       -7.055445   -0.934685   -0.209542
     81          1           0       -6.966982    0.658046   -0.971902
     82          1           0       -8.530850   -0.140977   -0.779170
     83          1           0       -9.151238   -2.096231   -2.148701
     84          1           0       -8.049901   -2.814247   -3.324838
     85          1           0       -7.731878   -2.983508   -1.591981
     86          1           0       -0.920451    1.403153   -6.020263
     87          1           0        0.563534    2.189765   -6.545247
     88          1           0       -0.954352    4.392698   -3.383744
     89          1           0       -2.421988    3.627596   -2.833404
     90          1           0       -1.436358    3.612086   -7.036099
     91          1           0       -0.367046    4.414164   -5.896421
     92          1           0       -2.711704    4.605497   -5.113150
     93          1           0       -2.904038    2.862413   -5.182597
 ---------------------------------------------------------------------
 Rotational constants (GHZ):           0.1313117           0.0480341           0.0370639
 General basis read from cards:  (5D, 7F)
 ======================================================================================================
                                       Pseudopotential Parameters
 ======================================================================================================
  Center     Atomic      Valence      Angular      Power
  Number     Number     Electrons     Momentum     of R      Exponent        Coefficient   SO-Coeffient
 ======================================================================================================
    1         27           17
                                      F and up 
                                                     2        1.0000000        0.00000000    0.00000000
                                      S - F
                                                     2       23.6600000      283.96056600    0.00000000
                                                     2       10.6100000       47.15684600    0.00000000
                                      P - F
                                                     2       25.0400000      182.21223600    0.00000000
                                                     2       10.4400000       35.23335200    0.00000000
                                      D - F
                                                     2       29.5400000      -26.47533300    0.00000000
                                                     2       10.1800000       -1.82578700    0.00000000
    2          8
                                   No pseudopotential on this center.
    3          8
                                   No pseudopotential on this center.
    4          7
                                   No pseudopotential on this center.
    5          7
                                   No pseudopotential on this center.
    6          6
                                   No pseudopotential on this center.
    7          6
                                   No pseudopotential on this center.
    8          6
                                   No pseudopotential on this center.
    9          6
                                   No pseudopotential on this center.
   10          6
                                   No pseudopotential on this center.
   11          6
                                   No pseudopotential on this center.
   12          6
                                   No pseudopotential on this center.
   13          6
                                   No pseudopotential on this center.
   14          6
                                   No pseudopotential on this center.
   15          6
                                   No pseudopotential on this center.
   16          6
                                   No pseudopotential on this center.
   17          6
                                   No pseudopotential on this center.
   18          6
                                   No pseudopotential on this center.
   19          6
                                   No pseudopotential on this center.
   20          6
                                   No pseudopotential on this center.
   21          6
                                   No pseudopotential on this center.
   22          6
                                   No pseudopotential on this center.
   23          6
                                   No pseudopotential on this center.
   24          6
                                   No pseudopotential on this center.
   25          6
                                   No pseudopotential on this center.
   26          6
                                   No pseudopotential on this center.
   27          6
                                   No pseudopotential on this center.
   28          6
                                   No pseudopotential on this center.
   29          6
                                   No pseudopotential on this center.
   30          6
                                   No pseudopotential on this center.
   31          6
                                   No pseudopotential on this center.
   32          6
                                   No pseudopotential on this center.
   33          6
                                   No pseudopotential on this center.
   34          6
                                   No pseudopotential on this center.
   35          6
                                   No pseudopotential on this center.
   36          6
                                   No pseudopotential on this center.
   37          6
                                   No pseudopotential on this center.
   38          6
                                   No pseudopotential on this center.
   39          6
                                   No pseudopotential on this center.
   40          6
                                   No pseudopotential on this center.
   41          6
                                   No pseudopotential on this center.
   42          1
                                   No pseudopotential on this center.
   43          1
                                   No pseudopotential on this center.
   44          1
                                   No pseudopotential on this center.
   45          1
                                   No pseudopotential on this center.
   46          1
                                   No pseudopotential on this center.
   47          1
                                   No pseudopotential on this center.
   48          1
                                   No pseudopotential on this center.
   49          1
                                   No pseudopotential on this center.
   50          1
                                   No pseudopotential on this center.
   51          1
                                   No pseudopotential on this center.
   52          1
                                   No pseudopotential on this center.
   53          1
                                   No pseudopotential on this center.
   54          1
                                   No pseudopotential on this center.
   55          1
                                   No pseudopotential on this center.
   56          1
                                   No pseudopotential on this center.
   57          1
                                   No pseudopotential on this center.
   58          1
                                   No pseudopotential on this center.
   59          1
                                   No pseudopotential on this center.
   60          1
                                   No pseudopotential on this center.
   61          1
                                   No pseudopotential on this center.
   62          1
                                   No pseudopotential on this center.
   63          1
                                   No pseudopotential on this center.
   64          1
                                   No pseudopotential on this center.
   65          1
                                   No pseudopotential on this center.
   66          1
                                   No pseudopotential on this center.
   67          1
                                   No pseudopotential on this center.
   68          1
                                   No pseudopotential on this center.
   69          1
                                   No pseudopotential on this center.
   70          1
                                   No pseudopotential on this center.
   71          1
                                   No pseudopotential on this center.
   72          1
                                   No pseudopotential on this center.
   73          1
                                   No pseudopotential on this center.
   74          1
                                   No pseudopotential on this center.
   75          1
                                   No pseudopotential on this center.
   76          1
                                   No pseudopotential on this center.
   77          1
                                   No pseudopotential on this center.
   78          1
                                   No pseudopotential on this center.
   79          1
                                   No pseudopotential on this center.
   80          1
                                   No pseudopotential on this center.
   81          1
                                   No pseudopotential on this center.
   82          1
                                   No pseudopotential on this center.
   83          1
                                   No pseudopotential on this center.
   84          1
                                   No pseudopotential on this center.
   85          1
                                   No pseudopotential on this center.
   86          1
                                   No pseudopotential on this center.
   87          1
                                   No pseudopotential on this center.
   88          1
                                   No pseudopotential on this center.
   89          1
                                   No pseudopotential on this center.
   90          1
                                   No pseudopotential on this center.
   91          1
                                   No pseudopotential on this center.
   92          1
                                   No pseudopotential on this center.
   93          1
                                   No pseudopotential on this center.
 ======================================================================================================
  1287 basis functions,  1983 primitive gaussians,  1333 cartesian basis functions
   159 alpha electrons      156 beta electrons
       nuclear repulsion energy      5394.5774622129 Hartrees.
 NAtoms=   93 NActive=   93 NUniq=   93 SFac= 1.00D+00 NAtFMM=   60 NAOKFM=T Big=T
 Integral buffers will be    131072 words long.
 Raffenetti 2 integral format.
 Two-electron integral symmetry is turned off.
 Standard density basis: Auto (5D, 7F)
  5934 Density fitting functions
 Force inversion solution in PCM.
 ------------------------------------------------------------------------------
 Polarizable Continuum Model (PCM)
 =================================
 Model                : PCM.
 Atomic radii         : SMD-Coulomb.
 Polarization charges : Total charges.
 Charge compensation  : None.
 Solution method      : Matrix inversion.
 Cavity type          : VdW (van der Waals Surface) (Alpha=1.000).
 Cavity algorithm     : GePol (No added spheres)
                        Default sphere list used, NSphG=   93.
                        Lebedev-Laikov grids with approx.  5.0 points / Ang**2.
                        Smoothing algorithm: York/Karplus (Gamma=1.0000).
                        Polarization charges: spherical gaussians, with
                                              point-specific exponents (IZeta= 3).
                        Self-potential: point-specific (ISelfS= 7).
                        Self-field    : sphere-specific E.n sum rule (ISelfD= 2).
 1st derivatives      : Analytical E(r).r(x)/FMM algorithm (CHGder, D1EAlg=3).
                        Cavity 1st derivative terms included.
 2nd derivatives      : Analytical E(r).r(xy)/FMM algorithm (CHGder, D2EAlg=3).
                        Cavity 2nd derivative terms included.
 Solvent              : n,n-DiMethylFormamide, Eps=  37.219000 Eps(inf)=   2.046330
 ------------------------------------------------------------------------------
 ------------------------------------------------------------------------------
 Atomic radii for non-electrostatic terms: SMD-CDS.
 ------------------------------------------------------------------------------
 Nuclear repulsion after PCM non-electrostatic terms =     5394.5706061680 Hartrees.
 One-electron integrals computed using PRISM.
   1 Symmetry operations used in ECPInt.
 ECPInt:  NShTT=  132870 NPrTT=  411758 LenC2=  103943 LenP2D=  215650.
 LDataN:  DoStor=T MaxTD1= 6 Len=  172
 Number of processors reduced to  53 by ecpmxn.
 NBasis=  1287 RedAO= T EigKep=  1.04D-06  NBF=  1287
 NBsUse=  1271 1.00D-06 EigRej=  8.55D-07 NBFU=  1271
 ExpMin= 1.00D-02 ExpMax= 8.59D+03 ExpMxC= 1.30D+03 IAcc=3 IRadAn=         5 AccDes= 0.00D+00
 Harris functional with IExCor= 1009 and IRadAn=       5 diagonalized for initial guess.
 HarFok:  IExCor= 1009 AccDes= 0.00D+00 IRadAn=         5 IDoV= 1 UseB2=F ITyADJ=14
 ICtDFT=  3500011 ScaDFX=  1.000000  1.000000  1.000000  1.000000
 FoFCou: FMM=F IPFlag=           0 FMFlag=      100000 FMFlg1=        2001
         NFxFlg=           0 DoJE=T BraDBF=F KetDBF=T FulRan=T
         wScrn=  0.000000 ICntrl=       500 IOpCl=  0 I1Cent=   200000004 NGrid=           0
         NMat0=    1 NMatS0=      1 NMatT0=    0 NMatD0=    1 NMtDS0=    0 NMtDT0=    0
 Symmetry not used in FoFCou.
 Initial guess <Sx>= 0.0000 <Sy>= 0.0000 <Sz>= 1.5000 <S**2>= 3.7500 S= 1.5000
 Requested convergence on RMS density matrix=1.00D-08 within  32 cycles.
 Requested convergence on MAX density matrix=1.00D-06.
 Requested convergence on             energy=1.00D-06.
 No special actions if energy rises.
 Inv3:  Mode=1 IEnd=   100954803.
 Iteration    1 A*A^-1 deviation from unit magnitude is 3.89D-15 for   4221.
 Iteration    1 A*A^-1 deviation from orthogonality  is 3.11D-15 for   5152    115.
 Iteration    1 A^-1*A deviation from unit magnitude is 3.22D-15 for   4221.
 Iteration    1 A^-1*A deviation from orthogonality  is 1.53D-14 for   4113   4112.
 EnCoef did   100 forward-backward iterations
 Rare condition: small coef for last iteration:  0.000D+00
 Rare condition: small coef for last iteration:  0.000D+00
 Rare condition: small coef for last iteration:  0.000D+00
 Rare condition: small coef for last iteration:  0.000D+00
 Rare condition: small coef for last iteration:  0.000D+00
 Rare condition: small coef for last iteration:  0.000D+00
 Rare condition: small coef for last iteration:  0.000D+00
 Restarting incremental Fock formation.
 Rare condition: small coef for last iteration:  0.000D+00
 Rare condition: small coef for last iteration:  0.000D+00
 Rare condition: small coef for last iteration:  0.000D+00
 Rare condition: small coef for last iteration:  0.000D+00
 >>>>>>>>>> Convergence criterion not met.
 Error on total polarization charges =  0.10152
 SCF Done:  E(UM06) =  -1808.28013806     A.U. after   33 cycles
            NFock= 32  Conv=0.19D-04     -V/T= 2.0366
 <Sx>= 0.0000 <Sy>= 0.0000 <Sz>= 1.5000 <S**2>= 3.7934 S= 1.5108
 <L.S>=  0.00000000000    
 SMD-CDS (non-electrostatic) energy       (kcal/mol) =      -4.30
 (included in total energy above)
 Annihilation of the first spin contaminant:
 S**2 before annihilation     3.7934,   after     3.7505
 LinEq1:  Iter=  0 NonCon=     1 RMS=5.05D-06 Max=1.17D-03 NDo=     1
 AX will form     1 AO Fock derivatives at one time.
 LinEq1:  Iter=  1 NonCon=     1 RMS=2.15D-06 Max=4.04D-04 NDo=     1
 LinEq1:  Iter=  2 NonCon=     1 RMS=2.76D-06 Max=6.04D-04 NDo=     1
[...]
 0.00009856,0.00013090,-0.00000436,0.00001225,0.00000056,0.00001658,0.0
 0001166,-0.00000033,0.00001620,0.00001679,-0.00000508,-0.00004405,0.00
 003514,0.00000572,0.00007006,-0.00007364,-0.00000066,-0.00009958,-0.00
 012729,0.00001702,0.00000816,-0.00003971,0.00000506,-0.00002717,-0.000
 06887,-0.00000412,0.00000240,0.00000702,-0.00000184,-0.00000459,0.0000
 1209,0.00000132,0.00002949,0.00000548,-0.00000593,-0.00005081,0.000014
 36,0.00001406,-0.00004923,0.00000102,0.00001062,0.00009432,-0.00002344
 ,-0.00001664,-0.00000659,-0.00000367,0.00000110,0.00001427,-0.00000529
 ,-0.00000319,-0.00018709,0.00003946,0.00001766,0.00035087,0.00027687,-
 0.00008478,-0.00038759,0.00004413,-0.00008051,-0.00035250,0.00158289,0
 .00039411,-0.00000082,-0.00000199,0.00000259,-0.00000110,-0.00000263,-
 0.00000138,-0.00000295,-0.00000179,0.00000082,0.00000015,-0.00000429,-
 0.00000379,0.00000505,-0.00000372,-0.00000122,0.00000198,-0.00000564,0
 .00000289,0.00000210,-0.00000180,-0.00000015,0.00000398,0.00000114,-0.
 00000358,0.00000471,0.00000165,0.00000150,-0.00000730,-0.00000439,0.00
 000578,-0.00000768,-0.00000184,-0.00000335,-0.00000489,0.00000533,0.00
 000140,0.00050687,0.00136058,-0.00076959,0.00017123,-0.00178426,-0.000
 29393,-0.00056989,-0.00124578,0.00029562,0.10323065,-0.25023844,0.0227
 4877,0.00000249,-0.00000002,-0.00000087,-0.00000289,0.00000050,0.00000
 037,-0.00000038,0.00000304,-0.00000042,0.00000243,0.00000725,0.0000002
 4,0.00000787,0.00001479,-0.00000354,0.00008116,-0.00010332,0.00001831,
 0.00004094,-0.00000380,0.00000258,0.00015621,-0.00037069,-0.00000270,-
 0.00000100,-0.00000281,-0.00000053,0.00000235,0.00000303,0.00000075,0.
 00000059,-0.00000006,-0.00000065,0.00000103,-0.00000019,0.00000071,0.0
 0000137,0.00000224,-0.00000273,-0.00000067,-0.00000235,0.00000174,0.00
 000010,-0.00000229,0.00000032,0.00000031,-0.00000018,-0.00000005,0.000
 00047,-0.00000023,0.00000012,0.00000142,-0.00000432,0.00000153,-0.0000
 0333,0.00000501,-0.00000248,-0.00000104,-0.00000034,0.00000162,-0.0000
 0065,-0.00000374,-0.00000019,-0.00000076,-0.00000055,0.00000021,-0.000
 00059,-0.00000035,0.00000027,-0.00000114,0.00000017,-0.00000073,-0.000
 00154,0.00000433,0.00000364,0.00000069,-0.00000376,-0.00000259,0.00000
 205,0.00000066,-0.00000045,-0.00000029,0.00000029,0.00000043,-0.000000
 15,0.00000011,-0.00000028,0.00000290,-0.00000049,0.00000139,-0.0000003
 4,0.00000026,0.00000025,-0.00000051,0.00000016,-0.00000007,-0.00000049
 ,0.00000032,0.00000031,-0.00000046,0.00000016,0.00000005,0.00000238,-0
 .00000095,-0.00000203,-0.00000466,0.00000269,-0.00000146,0.00000215,0.
 00000137,0.00000016,0.00000054,-0.00000026,-0.00000065,0.00000022,0.00
 000023,-0.00000017,0.00000162,0.00000041,0.00000052,-0.00000323,0.0000
 0177,0.00000370,-0.00000384,-0.00000114,0.00000098,0.00000056,0.000000
 06,0.00000055,0.00000012,0.00000056,-0.00000093,-0.00008690,0.00025179
 ,-0.00000596,0.00034298,-0.00025748,0.00021563,0.00013840,0.00054320,0
 .00029179,-0.00010901,0.00008575,0.00028763,0.00004548,0.00001957,-0.0
 0035161,0.00031981,0.00054904,-0.00022903,-0.11339984,0.26783803,0.000
 15957,-0.00013112,-0.00000922,-0.00006507,0.00003453,-0.00000255,-0.00
 005381,0.00007139,0.00002060,-0.00011018,0.00003714,0.00039974,0.00000
 674,-0.00010422,0.00014082,-0.00001003,0.00000157,0.00000302,-0.000030
 94,-0.00002040,0.00000079,0.00003918,-0.00000181,-0.00000302,0.0000859
 2,-0.00004450,-0.00002145,-0.00003561,0.00000863,-0.00003717,0.0001565
 7,0.00014340,-0.00002496,-0.00000443,0.00000335,0.00000472,0.00003255,
 0.00008715,0.00000540,-0.00000064,-0.00000364,-0.00000006,0.00000412,-
 0.00001243,-0.00000272,-0.00000130,0.00000082,0.00000028,0.00006731,-0
 .00002105,-0.00001875,0.00000765,0.00000350,-0.00000799,-0.00010696,0.
 00002588,0.00001937,0.00000269,0.00000173,0.00000010,-0.00001409,0.000
 00685,0.00000440,0.00000637,0.00001472,0.00002800,-0.00024313,-0.00022
 265,0.00015309,0.00037787,-0.00011474,-0.00075037,-0.00180265,-0.00143
 274,-0.00576373,0.00000080,0.00000119,-0.00000056,0.00000127,0.0000007
 7,0.00000014,0.00000118,0.00000042,-0.00000012,-0.00000030,0.00000490,
 0.00000413,-0.00000486,0.00000440,0.00000225,-0.00000099,0.00000638,-0
 .00000268,-0.00000098,0.00000105,-0.00000057,-0.00000145,-0.00000059,0
 .00000132,-0.00000274,-0.00000063,-0.00000114,0.00000503,0.00000194,-0
 .00000580,0.00000668,0.00000078,0.00000282,0.00000483,-0.00000561,-0.0
 0000148,0.00363244,0.00070445,-0.00300656,-0.01429913,0.02892492,-0.00
 418890,0.00942721,-0.02082650,0.00219929,-0.01135096,0.02209005,-0.046
 74844,-0.00000145,0.00000020,-0.00000011,0.00000291,-0.00000091,-0.000
 00039,-0.00000155,-0.00000237,-0.00000149,-0.00000199,-0.00000552,-0.0
 0000212,-0.00001007,-0.00000481,0.00000564,-0.00004186,-0.00002355,-0.
 00007176,-0.00003256,0.00000541,0.00006097,-0.00105005,0.00150052,-0.0
 0034327,0.00000024,0.00000102,0.00000050,-0.00000123,-0.00000255,-0.00
 000155,-0.00000052,0.00000079,0.00000090,-0.00000023,0.00000011,-0.000
 00003,-0.00000100,-0.00000129,0.00000160,0.,0.00000109,-0.00000056,-0.
 00000006,0.00000072,-0.00000017,-0.00000042,0.00000019,0.00000032,-0.0
 0000004,0.00000009,0.00000006,-0.00000142,0.00000436,-0.00000162,0.000
 00342,-0.00000489,0.00000190,0.00000090,0.00000007,-0.00000087,0.00000
 061,0.00000380,0.00000010,0.00000035,0.00000025,0.00000042,0.00000062,
 0.00000034,-0.00000039,0.00000200,0.00000061,0.00000103,0.00000041,-0.
 00000448,-0.00000508,-0.00000068,0.00000359,0.00000325,-0.00000057,-0.
 00000034,0.00000026,0.00000018,-0.00000023,0.00000036,0.00000004,0.000
 00015,0.00000006,-0.00000095,0.00000030,-0.00000044,0.00000020,0.00000
 013,0.00000015,0.00000022,-0.00000023,0.,0.00000024,-0.00000009,-0.000
 00017,0.00000014,-0.00000013,0.00000048,-0.00000075,0.00000059,0.00000
 100,0.00000375,-0.00000242,0.00000170,-0.00000084,-0.00000008,0.000000
 58,-0.00000005,0.00000022,0.00000057,-0.00000015,0.00000028,-0.0000001
 0,-0.00000072,0.00000031,0.00000007,0.00000260,-0.00000165,-0.00000331
 ,0.00000346,0.00000116,-0.00000078,-0.00000038,0.00000003,-0.00000049,
 -0.00000003,-0.00000024,0.00000070,-0.00018449,0.00023645,-0.00006877,
 0.00101908,-0.00112273,0.00025067,0.00036542,-0.00051397,0.00145094,0.
 00085541,-0.00015455,0.00132944,-0.00101623,0.00003404,0.00067754,-0.0
 0064348,0.00048674,0.00072586,0.01193941,-0.02477082,0.05379847,-0.000
 10647,0.00007730,-0.00002115,0.00003861,-0.00000473,-0.00000453,-0.000
 03641,-0.00002437,0.00001652,-0.00011461,0.00006781,-0.00003507,0.0001
 3448,0.00006064,0.00028701,0.00001070,-0.00000507,0.00000030,0.0000098
 8,0.00000264,0.00000640,-0.00004306,-0.00000714,0.00000436,0.00001056,
 -0.00001085,-0.00002373,-0.00001961,0.00002698,0.00000849,-0.00001918,
 0.00000225,-0.00005549,-0.00000094,0.00001510,-0.00000413,-0.00000541,
 -0.00002101,-0.00000216,-0.00000130,-0.00000137,-0.00000100,-0.0000011
 6,0.00000693,-0.00000139,-0.00001141,-0.00000454,0.00000316,-0.0000191
 7,0.00000455,0.00000305,0.00001595,-0.00000015,-0.00000019,0.00001651,
 -0.00000564,-0.00000472,-0.00000025,-0.00000007,-0.00000020,0.00000607
 ,-0.00000137,-0.00000236,0.00004515,0.00002295,-0.00001627,0.00048262,
 0.00044185,0.00002123,0.00001780,0.00009681,0.00002909,-0.00014685,-0.
 00109726,0.00035078,-0.00000018,0.00000114,-0.00000032,-0.00000009,0.0
 0000042,0.00000001,0.00000084,0.00000078,0.00000003,-0.00000077,-0.000
 00278,-0.00000174,0.00000192,-0.00000089,-0.00000134,0.00000049,-0.000
 00368,-0.00000013,-0.00000009,-0.00000027,-0.00000035,-0.00000054,-0.0
 0000015,0.00000013,-0.00000027,0.00000030,-0.00000060,-0.00000141,0.00
 000077,0.00000084,-0.00000398,-0.00000057,-0.00000170,-0.00000236,0.00
 000255,-0.00000110,0.00091020,-0.00097087,-0.00071788,-0.00777850,-0.0
 0699290,-0.00267575,-0.01801282,-0.01736059,-0.00323102,-0.16133220,-0
 .11853491,-0.03200718,-0.00000004,-0.00000016,-0.00000016,-0.00000160,
 0.00000006,-0.00000113,0.00000135,0.00000024,-0.00000094,0.00001081,0.
 00000346,-0.00000995,0.00000409,-0.00000543,-0.00000568,0.00016923,-0.
 00021583,0.00013526,0.00006182,-0.00000999,0.00001299,0.00000172,0.000
 14737,-0.00002700,0.00000031,0.00000028,0.00000035,-0.00000006,-0.0000
 0073,-0.00000059,-0.00000059,0.00000041,0.00000047,0.00000055,-0.00000
 005,0.00000049,-0.00000039,-0.00000057,-0.00000027,0.00000014,0.000000
 25,-0.00000020,0.00000003,0.00000043,-0.00000012,-0.00000026,0.0000001
 3,0.00000004,0.00000059,-0.00000018,0.00000043,0.00000105,-0.00000240,
 0.00000090,-0.00000187,0.00000279,-0.00000176,-0.00000074,-0.00000052,
 0.00000172,-0.00000027,-0.00000202,-0.00000009,-0.00000058,-0.00000080
 ,0.00000061,0.00000061,-0.00000013,0.00000039,0.00000202,0.00000099,0.
 00000091,-0.00000246,0.00000361,0.00000089,0.00000051,-0.00000277,-0.0
 0000039,-0.00000017,0.00000006,0.00000009,-0.00000003,-0.00000033,-0.0
 0000035,0.00000010,0.00000026,0.00000072,-0.00000031,-0.00000011,-0.00
 000010,0.00000017,0.00000012,0.00000039,0.00000027,0.00000003,-0.00000
 009,0.,0.00000027,-0.00000017,-0.00000015,-0.00000022,0.00000034,-0.00
 000012,0.00000002,0.00000033,-0.00000222,0.00000040,0.00000006,-0.0000
 0044,-0.00000288,-0.00000136,0.00000136,0.00000132,0.00000172,-0.00000
 008,-0.00000055,0.00000074,0.00000008,-0.00000018,-0.00000007,-0.00000
 139,0.00000125,0.00000205,-0.00000178,-0.00000064,0.00000070,0.0000004
 9,0.00000065,0.00000058,-0.00000033,-0.00000055,0.00000017,-0.00013908
 ,0.00050455,-0.00006323,0.00025567,0.00009966,0.00011687,0.00008151,0.
 00027381,-0.00193151,0.00040100,0.00031591,-0.00000986,0.00113779,0.00
 028752,-0.00018819,-0.00307056,0.00061966,0.00325122,0.00959487,0.0096
 9815,0.00290644,0.17745466,-0.00007646,0.00005693,-0.00001252,0.000013
 30,0.00000410,-0.00000686,-0.00001783,0.00001807,0.00002338,-0.0001219
 1,0.00005064,-0.00000371,0.00002198,-0.00047437,0.00092745,0.00000428,
 -0.00000569,-0.00000061,0.00000973,-0.00000220,-0.00000020,-0.00001907
 ,-0.00000779,0.00000608,0.00001895,-0.00004868,-0.00003634,-0.00003008
 ,0.00003351,0.00000564,0.00006686,0.00010591,-0.00009372,-0.00000291,0
 .00001754,-0.00000141,0.00001713,0.00001943,0.00000151,-0.00000129,-0.
 00000239,0.00000003,0.00000083,0.00000097,-0.00000063,-0.00001326,-0.0
 0000368,0.00000292,0.00000420,-0.00000465,-0.00000407,0.00002116,-0.00
 000099,-0.00000573,-0.00005576,0.00002413,0.00000708,0.00000244,0.0000
 0154,-0.00000071,-0.00000381,0.00000167,-0.00000054,0.00006840,-0.0000
 0087,-0.00001880,0.00029908,-0.00026450,0.00073621,0.00014388,-0.00000
 093,0.00010716,0.00006806,-0.00026239,-0.00046586,-0.00000048,0.000001
 13,-0.00000091,0.00000057,0.00000111,0.00000042,0.00000100,0.00000061,
 -0.00000030,-0.00000126,-0.00000082,0.00000007,-0.00000027,0.00000031,
 0.00000037,-0.00000146,-0.00000083,-0.00000031,-0.00000051,0.00000055,
 -0.00000025,-0.00000118,-0.00000032,0.00000104,-0.00000164,-0.00000055
 ,-0.00000061,0.00000556,0.00000667,-0.00000220,0.00000149,0.00000095,-
 0.00000007,0.00000187,-0.00000101,0.00000120,0.00049518,0.00073736,-0.
 00001468,0.00258768,0.00264882,-0.00014902,0.00170051,0.00077439,0.001
 03649,-0.11955521,-0.17095234,-0.03249508,-0.00000074,-0.00000002,-0.0
 0000005,0.00000029,-0.00000084,-0.00000109,0.00000028,-0.00000181,0.00
 000042,0.00001382,-0.00000341,-0.00001845,-0.00000054,-0.00000230,-0.0
 0000059,0.00002531,-0.00015226,0.00013473,-0.00002506,-0.00005153,-0.0
 0000933,-0.00018455,0.00016811,-0.00009147,0.00000062,0.00000099,0.000
 00029,-0.00000018,-0.00000114,-0.00000128,-0.00000032,0.00000034,0.000
 00046,0.00000009,-0.00000028,0.00000019,-0.00000057,-0.00000110,0.0000
 0065,0.00000041,0.00000087,-0.00000062,-0.00000010,0.00000088,-0.00000
 011,-0.00000015,0.00000005,0.,0.00000012,0.00000007,0.00000019,0.00000
 047,-0.00000040,0.,0.00000050,0.00000047,-0.00000044,0.00000027,-0.000
 00015,0.00000047,0.00000008,-0.00000034,-0.00000004,-0.00000004,-0.000
 00034,0.00000032,0.00000054,0.00000006,0.00000023,0.00000128,0.0000006
 9,0.00000147,-0.00000100,0.00000008,-0.00000047,0.00000051,-0.00000034
 ,0.00000012,-0.00000063,-0.00000019,0.00000017,0.00000017,-0.00000025,
 -0.00000016,0.00000006,0.00000025,0.00000033,-0.00000093,0.00000004,-0
 .00000046,-0.00000005,-0.00000004,0.00000004,0.00000023,0.,-0.00000003
 ,0.00000015,0.00000005,-0.00000013,0.00000016,-0.00000029,0.00000020,-
 0.00000073,0.00000033,0.00000074,-0.00000064,-0.00000179,0.00000159,-0
 .00000070,-0.00000495,-0.00000211,0.00000183,0.00000193,0.00000135,0.0
 0000070,-0.00000121,0.00000135,-0.00000069,-0.00000013,-0.00000189,-0.
 00000029,0.00000014,-0.00000010,-0.00000009,0.00000032,-0.00000036,-0.
 00000008,0.00000018,0.,-0.00000014,-0.00000183,0.00000089,-0.00002469,
 0.00029512,-0.00025370,-0.00005183,0.00022189,0.00006468,0.00040956,0.
 00109725,0.00048951,-0.00017870,0.00008839,-0.00040080,-0.00022006,0.0
 0014427,0.00034657,0.00053508,0.00113485,0.00002357,-0.01845157,-0.018
 45159,-0.00490499,0.13250275,0.18304958,0.00000122,0.00003216,0.000019
 86,0.00000739,-0.00000635,-0.00000913,0.00001702,-0.00000990,-0.000012
 20,-0.00001917,0.00002078,0.00009551,0.00002075,0.00077477,0.00012409,
 0.00000221,0.00000077,0.00000256,0.00001139,-0.00000079,-0.00000277,-0
 .00000818,-0.00000158,0.00000034,-0.00004895,0.00002002,0.00001405,-0.
 00000342,-0.00000318,-0.00000716,0.00000965,-0.00008681,-0.00003195,0.
 00000040,-0.00000098,0.00000076,-0.00000773,-0.00003344,-0.00000385,0.
 00000027,0.00000083,-0.00000034,-0.00000305,0.00000538,0.00000191,0.00
 000126,-0.00000109,-0.00000063,-0.00002287,0.00000848,0.00000688,-0.00
 000116,0.00000243,-0.00000009,0.00004893,0.00000431,0.00000807,-0.0000
 0055,0.00000016,0.00000019,0.00000500,-0.00000207,-0.00000257,-0.00000
 705,0.00002665,0.00000185,0.00001291,0.00057041,-0.00046359,0.00003179
 ,0.00004305,-0.00024000,0.00029779,-0.00067555,0.00117056,-0.00000037,
 -0.00000064,0.00000045,-0.00000046,-0.00000055,-0.00000021,-0.00000033
 ,-0.00000003,0.00000007,-0.00000063,-0.00000282,-0.00000205,0.00000298
 ,-0.00000311,-0.00000103,0.00000044,-0.00000339,0.00000209,0.00000005,
 -0.00000010,-0.00000028,0.00000014,-0.00000016,-0.00000046,0.00000032,
 0.,0.00000013,-0.00000123,0.00000212,0.00000268,-0.00000263,-0.0000000
 7,-0.00000130,-0.00000215,0.00000231,0.00000134,-0.00090017,0.00062311
 ,0.00059563,-0.02127471,-0.02300764,-0.00682486,0.01651877,0.01634362,
 0.00265389,-0.03221737,-0.03234341,-0.05323151,0.00000007,0.00000012,-
 0.00000037,-0.00000135,-0.00000081,0.00000057,-0.00000029,-0.00000070,
 -0.00000203,0.00000570,-0.00000232,-0.00001125,0.00000272,0.00000052,0
 .00000231,0.00011082,-0.00001084,-0.00035087,0.00002142,-0.00000755,-0
 .00001997,0.00025082,0.00001957,0.00000411,-0.00000004,-0.00000011,-0.
 00000009,0.00000039,0.00000015,0.00000062,0.00000025,-0.00000018,-0.00
 000019,0.00000034,0.,0.00000006,-0.00000009,0.00000021,-0.00000021,-0.
 00000004,-0.00000018,0.00000008,0.00000010,-0.00000011,0.00000002,0.00
 000008,0.00000001,-0.00000002,0.00000008,-0.00000004,-0.00000003,0.000
 00120,-0.00000219,0.00000081,-0.00000127,0.00000272,-0.00000138,-0.000
 00051,-0.00000044,0.00000064,-0.00000040,-0.00000203,-0.00000013,-0.00
 000006,0.00000028,-0.00000017,0.,0.,0.00000015,-0.00000095,-0.00000028
 ,-0.00000018,-0.00000018,0.00000118,0.00000154,0.00000047,-0.00000192,
 -0.00000178,0.00000008,0.00000002,0.00000006,0.00000011,0.00000004,0.0
 0000017,-0.00000008,0.00000009,0.00000003,0.00000010,-0.00000002,0.000
 00017,0.00000021,0.00000003,0.00000012,0.,0.00000005,-0.00000001,-0.00
 000001,0.00000003,0.00000010,0.00000006,0.00000007,0.00000009,0.000000
 03,-0.00000009,-0.00000012,-0.00000237,0.00000074,-0.00000031,0.000000
 86,-0.00000132,0.00000009,0.00000016,-0.00000010,0.00000035,0.00000046
 ,-0.00000094,0.00000049,0.00000010,0.00000066,-0.00000188,-0.00000138,
 0.00000143,0.00000175,-0.00000168,-0.00000053,0.00000060,0.00000007,-0
 .00000020,-0.00000001,0.00000027,-0.00000042,0.,-0.00024607,-0.0002737
 4,-0.00007188,-0.00023001,0.00009069,-0.00010981,-0.00252641,0.0010596
 3,-0.00545148,0.00078770,-0.00001629,0.00124123,-0.00095116,0.00020324
 ,0.00086582,0.00408066,-0.00062620,-0.00217379,0.00234513,0.00219408,-
 0.00020405,0.03388542,0.03507625,0.06241308\\-0.00002113,0.00000046,0.
 00001104,0.00000015,-0.00001119,-0.00000044,0.00000081,-0.00000230,-0.
 00000472,0.00002327,0.00000393,-0.00000601,-0.00000818,-0.00000953,0.0
 0000082,-0.00000091,0.00000148,0.00000087,0.00000062,0.00000229,0.0000
 0141,0.00000266,0.00000231,-0.00000420,0.00000032,0.00000484,0.0000064
 4,-0.00000019,-0.00000364,0.00000027,-0.00000276,-0.00000311,-0.000000
 57,-0.00000084,-0.00000117,0.00000060,0.00000066,0.00000068,-0.0000002
 3,0.00000032,-0.00000209,0.00000008,-0.00000114,-0.00000141,0.00000116
 ,-0.00000024,0.00000008,0.00000049,0.00000055,0.00000231,-0.00000183,-
 0.00000074,-0.00000164,0.00000060,0.00000209,0.00000030,-0.00000262,0.
 00000082,-0.00000030,0.00000009,-0.00000120,0.00000084,-0.00000023,-0.
 00000611,0.00000223,-0.00000132,0.00000694,0.00000220,-0.00000096,0.00
 000228,0.00000480,-0.00000063,0.00000088,0.00000308,0.00000004,0.00000
 103,-0.00000042,0.00000014,0.00000033,0.00000045,-0.00000017,-0.000002
 09,-0.00000031,0.00000085,-0.00000037,0.00000090,-0.00000109,0.0000001
 5,0.00000105,-0.00000016,-0.00000083,-0.00000051,0.00000097,0.00000018
 ,-0.00000234,0.00000045,-0.00000058,-0.00000079,-0.00000014,-0.0000008
 8,-0.00000095,0.00000125,0.00000105,0.00000059,-0.00000017,0.00000005,
 0.00000070,-0.00000167,0.00000001,0.00000254,-0.00000018,0.00000201,-0
 .00000074,-0.00000071,-0.00000079,-0.00000145,-0.00000210,-0.00000009,
 -0.00000193,0.00000098,0.00000120,0.00000079,-0.00000134,-0.00000003,-
 0.00000034,0.00000078,-0.00000002,0.00000116,-0.00000011,0.00000021,-0
 .00000063,-0.00000003,-0.00000099,0.00000098,-0.00000105,0.00000050,0.
 00000116,0.00000099,0.00000036,0.00000125,0.00000042,0.00000307,-0.000
 00175,-0.00000097,0.00000007,-0.00000139,-0.00000016,-0.00000138,-0.00
 000057,0.00000203,0.00000019,0.00000184,0.00000185,0.00000028,0.000000
 22,0.00000021,-0.00000015,0.00000011,0.00000061,-0.00000235,0.00000266
 ,-0.00000032,-0.00000040,-0.00000022,0.00000088,-0.00000080,-0.0000006
 2,0.00000109,-0.00000010,-0.00000095,0.00000056,-0.00000004,-0.0000001
 1,0.00000113,-0.00000034,-0.00000131,-0.00000055,-0.00000187,0.0000008
 6,0.00000110,-0.00000032,0.00000132,0.00000060,-0.00000038,0.00000016,
 0.00000044,-0.00000053,0.00000110,0.00000081,-0.00000039,-0.00000009,0
 .00000009,-0.00000026,0.00000070,0.00000033,0.00000174,0.00000112,-0.0
 0000047,0.00000037,0.00000027,-0.00000049,0.00000062,-0.00000144,0.000
 00045,-0.00000014,-0.00000108,0.00000004,0.,-0.00000062,0.00000029,0.0
 0000031,-0.00000108,0.00000064,-0.00000027,-0.00000062,0.00000076,-0.0
 0000047,-0.00000126,0.00000052,-0.00000034,-0.00000143,0.00000086,-0.0
 0000021,-0.00000130,0.00000017,0.00000041,-0.00000139,0.00000083,-0.00
 000022,0.00000130,-0.00000061,0.00000070,0.00000116,-0.00000050,0.0000
 0040,0.00000055,-0.00000089,0.00000020,0.00000107,-0.00000010,0.000000
 59,0.00000162,-0.00000095,-0.00000048,0.00000158,-0.00000066,-0.000000
 48,0.00000152,-0.00000037,-0.00000010,0.00000069,-0.00000067,-0.000000
 42,0.00000100,0.00000038,0.00000013,-0.00000082,-0.00000033,0.00000021
 ,-0.00000072,-0.00000127,0.00000042,0.00000087,-0.00000089,0.00000034,
 0.00000007,-0.00000047,0.00000089,-0.00000049,-0.00000116,0.00000095,-
 0.00000020,-0.00000068,0.00000072,0.00000027,-0.00000145,0.00000052,0.
 00000077,-0.00000075\\\@
 The archive entry for this job was punched.


 Sacred cows make the best hamburger.
                               -- Mark Twain
 Job cpu time:      44 days  6 hours 51 minutes 40.0 seconds.
 Elapsed time:       0 days 11 hours 17 minutes 53.2 seconds.
 File lengths (MBytes):  RWF=  21967 Int=      0 D2E=      0 Chk=    210 Scr=      1
 Normal termination of Gaussian 16 at Sun Feb 16 04:05:47 2025.
14594840.98user 9086.66system 43:03:25elapsed 9421%CPU (0avgtext+0avgdata 63326912maxresident)k
0inputs+65387016outputs (336995major+168411546minor)pagefaults 0swaps
