 Entering Gaussian System, Link 0=g16
 Initial command:
 /share/apps/gaussian/g16.a03/l1.exe "/state/partition1/tanwa008/239245.g09scratch/Gau-5344.inp" -scrdir="/state/partition1/tanwa008/239245.g09scratch/"
 Entering Link 1 = /share/apps/gaussian/g16.a03/l1.exe PID=      5345.
  
 Copyright (c) 1988,1990,1992,1993,1995,1998,2003,2009,2016,
            Gaussian, Inc.  All Rights Reserved.
  
 This is part of the Gaussian(R) 16 program.  It is based on
 the Gaussian(R) 09 system (copyright 2009, Gaussian, Inc.),
 the Gaussian(R) 03 system (copyright 2003, Gaussian, Inc.),
 the Gaussian(R) 98 system (copyright 1998, Gaussian, Inc.),
 the Gaussian(R) 94 system (copyright 1995, Gaussian, Inc.),
 the Gaussian 92(TM) system (copyright 1992, Gaussian, Inc.),
 the Gaussian 90(TM) system (copyright 1990, Gaussian, Inc.),
 the Gaussian 88(TM) system (copyright 1988, Gaussian, Inc.),
 the Gaussian 86(TM) system (copyright 1986, Carnegie Mellon
 University), and the Gaussian 82(TM) system (copyright 1983,
 Carnegie Mellon University). Gaussian is a federally registered
 trademark of Gaussian, Inc.
  
 This software contains proprietary and confidential information,
 including trade secrets, belonging to Gaussian, Inc.
  
 This software is provided under written license and may be
 used, copied, transmitted, or stored only in accord with that
 written license.
  
 The following legend is applicable only to US Government
 contracts under FAR:
  
                    RESTRICTED RIGHTS LEGEND
  
 Use, reproduction and disclosure by the US Government is
 subject to restrictions as set forth in subparagraphs (a)
 and (c) of the Commercial Computer Software - Restricted
 Rights clause in FAR 52.227-19.
  
 Gaussian, Inc.
 340 Quinnipiac St., Bldg. 40, Wallingford CT 06492
  
  
 ---------------------------------------------------------------
 Warning -- This program may not be used in any manner that
 competes with the business of Gaussian, Inc. or will provide
 assistance to any competitor of Gaussian, Inc.  The licensee
 of this program is prohibited from giving any competitor of
 Gaussian, Inc. access to this program.  By using this program,
 the user acknowledges that Gaussian, Inc. is engaged in the
 business of creating and licensing software in the field of
 computational chemistry and represents and warrants to the
 licensee that it is not a competitor of Gaussian, Inc. and that
 it will not use this program in any manner prohibited above.
 ---------------------------------------------------------------
  

 Cite this work as:
 Gaussian 16, Revision A.03,
 M. J. Frisch, G. W. Trucks, H. B. Schlegel, G. E. Scuseria, 
 M. A. Robb, J. R. Cheeseman, G. Scalmani, V. Barone, 
 G. A. Petersson, H. Nakatsuji, X. Li, M. Caricato, A. V. Marenich, 
 J. Bloino, B. G. Janesko, R. Gomperts, B. Mennucci, H. P. Hratchian, 
 J. V. Ortiz, A. F. Izmaylov, J. L. Sonnenberg, D. Williams-Young, 
 F. Ding, F. Lipparini, F. Egidi, J. Goings, B. Peng, A. Petrone, 
 T. Henderson, D. Ranasinghe, V. G. Zakrzewski, J. Gao, N. Rega, 
 G. Zheng, W. Liang, M. Hada, M. Ehara, K. Toyota, R. Fukuda, 
 J. Hasegawa, M. Ishida, T. Nakajima, Y. Honda, O. Kitao, H. Nakai, 
 T. Vreven, K. Throssell, J. A. Montgomery, Jr., J. E. Peralta, 
 F. Ogliaro, M. J. Bearpark, J. J. Heyd, E. N. Brothers, K. N. Kudin, 
 V. N. Staroverov, T. A. Keith, R. Kobayashi, J. Normand, 
 K. Raghavachari, A. P. Rendell, J. C. Burant, S. S. Iyengar, 
 J. Tomasi, M. Cossi, J. M. Millam, M. Klene, C. Adamo, R. Cammi, 
 J. W. Ochterski, R. L. Martin, K. Morokuma, O. Farkas, 
 J. B. Foresman, and D. J. Fox, Gaussian, Inc., Wallingford CT, 2016.
 
 ******************************************
 Gaussian 16:  ES64L-G16RevA.03 25-Dec-2016
                13-Jun-2021 
 ******************************************
 %nprocshared=24
 Will use up to   24 processors via shared memory.
 %mem=59800MB
 %chk=CoIIR_S_1.chk
 ----------------------------------------------------------------------
 # opt=calcfc # freq # m06l/genecp/auto # nosymm integral=grid=ultrafin
 e # scf=(tight,intrep,xqc) # SCRF=(SMD,Solvent=n,n-DiMethylFormamide)
 ----------------------------------------------------------------------
 1/10=4,18=20,19=15,26=6,38=1/1,3;
 2/9=110,12=2,15=1,17=6,18=5,40=1/2;
 3/5=7,11=2,16=1,17=8,25=1,30=1,70=32201,71=2,72=148,74=-53,75=-5,82=28,140=1/1,2,3;
 4//1;
 5/5=2,8=3,13=1,17=20,32=2,38=5,53=148/2,8;
 8/6=4,10=90,11=11/1;
 11/6=1,8=1,9=11,15=111,16=1,31=1/1,2,10;
 10/6=1,13=1,31=1/2;
 6/7=2,8=2,9=2,10=2,28=1/1;
 7/10=1,18=20,25=1,30=1/1,2,3,16;
 1/10=4,18=20,19=15,26=6/3(2);
 2/9=110,15=1/2;
 99//99;
 2/9=110,15=1/2;
 3/5=7,6=1,11=2,16=1,17=8,25=1,30=1,70=32205,71=1,72=148,74=-53,75=-5,82=7/1,2,3;
 4/5=5,16=3,69=1/1;
 5/5=2,8=3,13=1,17=20,32=2,38=5,53=148/2,8;
 7/30=1/1,2,3,16;
 1/18=20,19=15,26=6/3(-5);
 2/9=110,15=1/2;
 6/7=2,8=2,9=2,10=2,19=2,28=1/1;
 99/9=1/99;
 -------------------
 Title Card Required
 -------------------
 Symbolic Z-matrix:
 Charge = -1 Multiplicity = 1
 Co                    0.13296   0.26356  -1.21122 
 O                     1.36546  -1.18254  -1.29699 
 O                    -1.21853  -1.03363  -0.90304 
 N                     1.41249   1.53149  -1.72999 
 N                    -1.0068    1.73047  -0.88434 
 C                     3.3891   -2.37419  -1.54021 
 C                    -3.37421  -1.963    -0.6504 
 C                     2.63237  -1.1524   -1.5822 
 C                    -2.48691  -0.83821  -0.69635 
 C                     3.3242    0.04988  -1.93595 
 C                    -3.05087   0.46618  -0.51294 
 C                     5.4326   -1.14528  -2.21843 
 C                    -5.28593  -0.46278  -0.17387 
 C                     2.71267  -3.68883  -1.13368 
 C                    -2.84186  -3.37535  -0.92264 
 C                     4.73555  -2.32223  -1.85933 
 C                    -4.71994  -1.7356   -0.38853 
 C                     4.70426   0.02307  -2.2448 
 C                    -4.42734   0.61673  -0.24923 
 C                     6.92182  -1.22665  -2.54912 
 C                    -6.77318  -0.25034   0.12069 
 C                     2.66605   1.31603  -1.99371 
 C                    -2.26993   1.66332  -0.59579 
 C                     0.83648   2.86826  -1.91527 
 C                    -0.26567   3.01558  -0.86321 
 C                     1.54106  -4.01234  -2.07395 
 C                     2.19649  -3.58108   0.30973 
 C                     3.68159  -4.87156  -1.18763 
 C                    -1.74451  -3.75269   0.08464 
 C                    -3.94101  -4.43441  -0.81806 
 C                    -2.27464  -3.44227  -2.34975 
 C                     7.50532   0.14171  -2.89448 
 C                     7.68676  -1.78909  -1.34336 
 C                     7.12981  -2.16054  -3.74901 
 C                    -7.38483   0.66046  -0.95197 
 C                    -6.93135   0.42212   1.49079 
 C                    -7.55446  -1.56342   0.13671 
 C                     0.27847   2.99612  -3.33342 
 C                    -1.08436   4.28101  -1.08214 
 C                    -0.50223   4.28981  -3.51808 
 C                    -1.63049   4.39288  -2.49988 
 H                     5.30378  -3.24637  -1.83237 
 H                    -5.37835  -2.5945   -0.35044 
 H                     5.17217   0.96811  -2.50713 
 H                    -4.80264   1.62902  -0.10854 
 H                     3.27898   2.17383  -2.28873 
 H                    -2.81151   2.59121  -0.39851 
 H                     1.60444   3.63479  -1.74885 
 H                     0.2164    3.06183   0.12246 
 H                     1.09684  -4.97572  -1.79939 
 H                     0.76561  -3.24863  -2.02264 
 H                     1.88163  -4.09126  -3.11235 
 H                     3.02323  -3.41106   1.0079 
 H                     1.48104  -2.76528   0.41936 
 H                     1.70066  -4.51267   0.60531 
 H                     3.15471  -5.78365  -0.89113 
 H                     4.07936  -5.03598  -2.19432 
 H                     4.52899  -4.74869  -0.50582 
 H                    -1.40172  -4.77686  -0.10161 
 H                    -0.88706  -3.08433   0.01112 
 H                    -2.12562  -3.71529   1.1112 
 H                    -3.51324  -5.42008  -1.02555 
 H                    -4.38532  -4.47494   0.18168 
 H                    -4.74763  -4.27122  -1.53967 
 H                    -3.05801  -3.24359  -3.08922 
 H                    -1.47186  -2.71854  -2.49677 
 H                    -1.87434  -4.44201  -2.55298 
 H                     8.5711    0.04501  -3.12267 
 H                     7.02088   0.58466  -3.77029 
 H                     7.40994   0.84838  -2.06407 
 H                     8.75665  -1.86133  -1.56619 
 H                     7.57068  -1.14567  -0.4652 
 H                     7.33944  -2.79032  -1.07174 
 H                     6.75941  -3.17002  -3.54715 
 H                     6.61045  -1.78593  -4.63701 
 H                     8.19433  -2.2427   -3.99338 
 H                    -8.44855   0.83047  -0.75338 
 H                    -6.89446   1.63786  -0.98082 
 H                    -7.29776   0.21393  -1.94781 
 H                    -6.51386  -0.20073   2.28855 
 H                    -6.42555   1.39167   1.52547 
 H                    -7.9893    0.59242   1.71822 
 H                    -8.6091   -1.36344   0.34924 
 H                    -7.50721  -2.08193  -0.82612 
 H                    -7.18983  -2.25025   0.90693 
 H                    -0.37894   2.13574  -3.52245 
 H                     1.10498   2.92224  -4.04781 
 H                    -0.41195   5.12523  -0.88586 
 H                    -1.8795    4.36021  -0.33518 
 H                    -0.89491   4.34475  -4.53812 
 H                     0.17475   5.1467   -3.39869 
 H                    -2.16971   5.3382   -2.61483 
 H                    -2.36218   3.59513  -2.68428 
 

 GradGradGradGradGradGradGradGradGradGradGradGradGradGradGradGradGradGrad
 Berny optimization.
 Initialization pass.
                           ----------------------------
                           !    Initial Parameters    !
                           ! (Angstroms and Degrees)  !
 --------------------------                            --------------------------
 ! Name  Definition              Value          Derivative Info.                !
 --------------------------------------------------------------------------------
 ! R1    R(1,2)                  1.902          calculate D2E/DX2 analytically  !
 ! R2    R(1,3)                  1.8985         calculate D2E/DX2 analytically  !
 ! R3    R(1,4)                  1.8746         calculate D2E/DX2 analytically  !
 ! R4    R(1,5)                  1.8862         calculate D2E/DX2 analytically  !
 ! R5    R(2,8)                  1.299          calculate D2E/DX2 analytically  !
 ! R6    R(3,9)                  1.2999         calculate D2E/DX2 analytically  !
 ! R7    R(4,22)                 1.299          calculate D2E/DX2 analytically  !
 ! R8    R(4,24)                 1.4673         calculate D2E/DX2 analytically  !
 ! R9    R(5,23)                 1.2974         calculate D2E/DX2 analytically  !
 ! R10   R(5,25)                 1.4837         calculate D2E/DX2 analytically  !
 ! R11   R(6,8)                  1.4378         calculate D2E/DX2 analytically  !
 ! R12   R(6,14)                 1.5333         calculate D2E/DX2 analytically  !
 ! R13   R(6,16)                 1.3847         calculate D2E/DX2 analytically  !
 ! R14   R(7,9)                  1.4334         calculate D2E/DX2 analytically  !
 ! R15   R(7,15)                 1.5337         calculate D2E/DX2 analytically  !
 ! R16   R(7,17)                 1.3897         calculate D2E/DX2 analytically  !
 ! R17   R(8,10)                 1.4315         calculate D2E/DX2 analytically  !
 ! R18   R(9,11)                 1.4329         calculate D2E/DX2 analytically  !
 ! R19   R(10,18)                1.4145         calculate D2E/DX2 analytically  !
 ! R20   R(10,22)                1.4282         calculate D2E/DX2 analytically  !
 ! R21   R(11,19)                1.4096         calculate D2E/DX2 analytically  !
 ! R22   R(11,23)                1.4317         calculate D2E/DX2 analytically  !
 ! R23   R(12,16)                1.4142         calculate D2E/DX2 analytically  !
 ! R24   R(12,18)                1.377          calculate D2E/DX2 analytically  !
 ! R25   R(12,20)                1.5277         calculate D2E/DX2 analytically  !
 ! R26   R(13,17)                1.4094         calculate D2E/DX2 analytically  !
 ! R27   R(13,19)                1.3814         calculate D2E/DX2 analytically  !
 ! R28   R(13,21)                1.531          calculate D2E/DX2 analytically  !
 ! R29   R(14,26)                1.5367         calculate D2E/DX2 analytically  !
 ! R30   R(14,27)                1.5367         calculate D2E/DX2 analytically  !
 ! R31   R(14,28)                1.5299         calculate D2E/DX2 analytically  !
 ! R32   R(15,29)                1.5366         calculate D2E/DX2 analytically  !
 ! R33   R(15,30)                1.5299         calculate D2E/DX2 analytically  !
 ! R34   R(15,31)                1.5372         calculate D2E/DX2 analytically  !
 ! R35   R(16,42)                1.0852         calculate D2E/DX2 analytically  !
 ! R36   R(17,43)                1.0829         calculate D2E/DX2 analytically  !
 ! R37   R(18,44)                1.0867         calculate D2E/DX2 analytically  !
 ! R38   R(19,45)                1.0887         calculate D2E/DX2 analytically  !
 ! R39   R(20,32)                1.5271         calculate D2E/DX2 analytically  !
 ! R40   R(20,33)                1.5347         calculate D2E/DX2 analytically  !
 ! R41   R(20,34)                1.5347         calculate D2E/DX2 analytically  !
 ! R42   R(21,35)                1.5344         calculate D2E/DX2 analytically  !
 ! R43   R(21,36)                1.5344         calculate D2E/DX2 analytically  !
 ! R44   R(21,37)                1.528          calculate D2E/DX2 analytically  !
 ! R45   R(22,46)                1.0948         calculate D2E/DX2 analytically  !
 ! R46   R(23,47)                1.0923         calculate D2E/DX2 analytically  !
 ! R47   R(24,25)                1.5308         calculate D2E/DX2 analytically  !
 ! R48   R(24,38)                1.5293         calculate D2E/DX2 analytically  !
 ! R49   R(24,48)                1.0977         calculate D2E/DX2 analytically  !
 ! R50   R(25,39)                1.523          calculate D2E/DX2 analytically  !
 ! R51   R(25,49)                1.0982         calculate D2E/DX2 analytically  !
 ! R52   R(26,50)                1.0958         calculate D2E/DX2 analytically  !
 ! R53   R(26,51)                1.0896         calculate D2E/DX2 analytically  !
 ! R54   R(26,52)                1.0957         calculate D2E/DX2 analytically  !
 ! R55   R(27,53)                1.0954         calculate D2E/DX2 analytically  !
 ! R56   R(27,54)                1.0906         calculate D2E/DX2 analytically  !
 ! R57   R(27,55)                1.0959         calculate D2E/DX2 analytically  !
 ! R58   R(28,56)                1.0943         calculate D2E/DX2 analytically  !
 ! R59   R(28,57)                1.0948         calculate D2E/DX2 analytically  !
 ! R60   R(28,58)                1.0946         calculate D2E/DX2 analytically  !
 ! R61   R(29,59)                1.096          calculate D2E/DX2 analytically  !
 ! R62   R(29,60)                1.0897         calculate D2E/DX2 analytically  !
 ! R63   R(29,61)                1.0957         calculate D2E/DX2 analytically  !
 ! R64   R(30,62)                1.0943         calculate D2E/DX2 analytically  !
 ! R65   R(30,63)                1.0948         calculate D2E/DX2 analytically  !
 ! R66   R(30,64)                1.0945         calculate D2E/DX2 analytically  !
 ! R67   R(31,65)                1.0954         calculate D2E/DX2 analytically  !
 ! R68   R(31,66)                1.0908         calculate D2E/DX2 analytically  !
 ! R69   R(31,67)                1.0959         calculate D2E/DX2 analytically  !
 ! R70   R(32,68)                1.0942         calculate D2E/DX2 analytically  !
 ! R71   R(32,69)                1.0945         calculate D2E/DX2 analytically  !
 ! R72   R(32,70)                1.0946         calculate D2E/DX2 analytically  !
 ! R73   R(33,71)                1.0952         calculate D2E/DX2 analytically  !
 ! R74   R(33,72)                1.0948         calculate D2E/DX2 analytically  !
 ! R75   R(33,73)                1.094          calculate D2E/DX2 analytically  !
 ! R76   R(34,74)                1.0941         calculate D2E/DX2 analytically  !
 ! R77   R(34,75)                1.0948         calculate D2E/DX2 analytically  !
 ! R78   R(34,76)                1.0953         calculate D2E/DX2 analytically  !
 ! R79   R(35,77)                1.0954         calculate D2E/DX2 analytically  !
 ! R80   R(35,78)                1.0939         calculate D2E/DX2 analytically  !
 ! R81   R(35,79)                1.0948         calculate D2E/DX2 analytically  !
 ! R82   R(36,80)                1.0948         calculate D2E/DX2 analytically  !
 ! R83   R(36,81)                1.0941         calculate D2E/DX2 analytically  !
 ! R84   R(36,82)                1.0954         calculate D2E/DX2 analytically  !
 ! R85   R(37,83)                1.0943         calculate D2E/DX2 analytically  !
 ! R86   R(37,84)                1.0946         calculate D2E/DX2 analytically  !
 ! R87   R(37,85)                1.0945         calculate D2E/DX2 analytically  !
 ! R88   R(38,40)                1.5222         calculate D2E/DX2 analytically  !
 ! R89   R(38,86)                1.0992         calculate D2E/DX2 analytically  !
 ! R90   R(38,87)                1.0949         calculate D2E/DX2 analytically  !
 ! R91   R(39,41)                1.5234         calculate D2E/DX2 analytically  !
 ! R92   R(39,88)                1.097          calculate D2E/DX2 analytically  !
 ! R93   R(39,89)                1.0938         calculate D2E/DX2 analytically  !
 ! R94   R(40,41)                1.5233         calculate D2E/DX2 analytically  !
 ! R95   R(40,90)                1.0944         calculate D2E/DX2 analytically  !
 ! R96   R(40,91)                1.0986         calculate D2E/DX2 analytically  !
 ! R97   R(41,92)                1.0944         calculate D2E/DX2 analytically  !
 ! R98   R(41,93)                1.0981         calculate D2E/DX2 analytically  !
 ! A1    A(2,1,3)               87.0838         calculate D2E/DX2 analytically  !
 ! A2    A(2,1,4)               93.4097         calculate D2E/DX2 analytically  !
 ! A3    A(3,1,5)               94.1916         calculate D2E/DX2 analytically  !
 ! A4    A(4,1,5)               86.2375         calculate D2E/DX2 analytically  !
 ! A5    A(1,2,8)              128.629          calculate D2E/DX2 analytically  !
 ! A6    A(1,3,9)              128.1502         calculate D2E/DX2 analytically  !
 ! A7    A(1,4,22)             127.0631         calculate D2E/DX2 analytically  !
 ! A8    A(1,4,24)             112.5324         calculate D2E/DX2 analytically  !
 ! A9    A(22,4,24)            120.2845         calculate D2E/DX2 analytically  !
 ! A10   A(1,5,23)             125.9154         calculate D2E/DX2 analytically  !
 ! A11   A(1,5,25)             111.9779         calculate D2E/DX2 analytically  !
 ! A12   A(23,5,25)            121.8706         calculate D2E/DX2 analytically  !
 ! A13   A(8,6,14)             120.2744         calculate D2E/DX2 analytically  !
 ! A14   A(8,6,16)             118.2393         calculate D2E/DX2 analytically  !
 ! A15   A(14,6,16)            121.4819         calculate D2E/DX2 analytically  !
 ! A16   A(9,7,15)             120.1371         calculate D2E/DX2 analytically  !
 ! A17   A(9,7,17)             118.4945         calculate D2E/DX2 analytically  !
 ! A18   A(15,7,17)            121.3491         calculate D2E/DX2 analytically  !
 ! A19   A(2,8,6)              119.1572         calculate D2E/DX2 analytically  !
 ! A20   A(2,8,10)             123.0312         calculate D2E/DX2 analytically  !
 ! A21   A(6,8,10)             117.8112         calculate D2E/DX2 analytically  !
 ! A22   A(3,9,7)              119.4164         calculate D2E/DX2 analytically  !
 ! A23   A(3,9,11)             122.7687         calculate D2E/DX2 analytically  !
 ! A24   A(7,9,11)             117.8147         calculate D2E/DX2 analytically  !
 ! A25   A(8,10,18)            120.6351         calculate D2E/DX2 analytically  !
 ! A26   A(8,10,22)            122.1322         calculate D2E/DX2 analytically  !
 ! A27   A(18,10,22)           117.2327         calculate D2E/DX2 analytically  !
 ! A28   A(9,11,19)            120.3655         calculate D2E/DX2 analytically  !
 ! A29   A(9,11,23)            122.6215         calculate D2E/DX2 analytically  !
 ! A30   A(19,11,23)           117.0111         calculate D2E/DX2 analytically  !
 ! A31   A(16,12,18)           116.7607         calculate D2E/DX2 analytically  !
 ! A32   A(16,12,20)           119.4141         calculate D2E/DX2 analytically  !
 ! A33   A(18,12,20)           123.8251         calculate D2E/DX2 analytically  !
 ! A34   A(17,13,19)           116.6043         calculate D2E/DX2 analytically  !
 ! A35   A(17,13,21)           123.0057         calculate D2E/DX2 analytically  !
 ! A36   A(19,13,21)           120.3888         calculate D2E/DX2 analytically  !
 ! A37   A(6,14,26)            110.7697         calculate D2E/DX2 analytically  !
 ! A38   A(6,14,27)            109.7005         calculate D2E/DX2 analytically  !
 ! A39   A(6,14,28)            111.9676         calculate D2E/DX2 analytically  !
 ! A40   A(26,14,27)           109.4744         calculate D2E/DX2 analytically  !
 ! A41   A(26,14,28)           107.3692         calculate D2E/DX2 analytically  !
 ! A42   A(27,14,28)           107.4615         calculate D2E/DX2 analytically  !
 ! A43   A(7,15,29)            110.9563         calculate D2E/DX2 analytically  !
 ! A44   A(7,15,30)            112.0831         calculate D2E/DX2 analytically  !
 ! A45   A(7,15,31)            109.449          calculate D2E/DX2 analytically  !
 ! A46   A(29,15,30)           107.3535         calculate D2E/DX2 analytically  !
 ! A47   A(29,15,31)           109.5349         calculate D2E/DX2 analytically  !
 ! A48   A(30,15,31)           107.3633         calculate D2E/DX2 analytically  !
 ! A49   A(6,16,12)            124.6811         calculate D2E/DX2 analytically  !
 ! A50   A(6,16,42)            118.1297         calculate D2E/DX2 analytically  !
 ! A51   A(12,16,42)           117.1891         calculate D2E/DX2 analytically  !
 ! A52   A(7,17,13)            124.4255         calculate D2E/DX2 analytically  !
 ! A53   A(7,17,43)            117.7501         calculate D2E/DX2 analytically  !
 ! A54   A(13,17,43)           117.824          calculate D2E/DX2 analytically  !
 ! A55   A(10,18,12)           121.8679         calculate D2E/DX2 analytically  !
 ! A56   A(10,18,44)           117.1514         calculate D2E/DX2 analytically  !
 ! A57   A(12,18,44)           120.9807         calculate D2E/DX2 analytically  !
 ! A58   A(11,19,13)           122.2556         calculate D2E/DX2 analytically  !
 ! A59   A(11,19,45)           117.393          calculate D2E/DX2 analytically  !
 ! A60   A(13,19,45)           120.3508         calculate D2E/DX2 analytically  !
 ! A61   A(12,20,32)           111.9436         calculate D2E/DX2 analytically  !
 ! A62   A(12,20,33)           109.5932         calculate D2E/DX2 analytically  !
 ! A63   A(12,20,34)           109.4984         calculate D2E/DX2 analytically  !
 ! A64   A(32,20,33)           108.3979         calculate D2E/DX2 analytically  !
 ! A65   A(32,20,34)           108.4611         calculate D2E/DX2 analytically  !
 ! A66   A(33,20,34)           108.8877         calculate D2E/DX2 analytically  !
 ! A67   A(13,21,35)           109.5791         calculate D2E/DX2 analytically  !
 ! A68   A(13,21,36)           109.436          calculate D2E/DX2 analytically  !
 ! A69   A(13,21,37)           112.3017         calculate D2E/DX2 analytically  !
 ! A70   A(35,21,36)           108.8441         calculate D2E/DX2 analytically  !
 ! A71   A(35,21,37)           108.2769         calculate D2E/DX2 analytically  !
 ! A72   A(36,21,37)           108.3336         calculate D2E/DX2 analytically  !
 ! A73   A(4,22,10)            125.7011         calculate D2E/DX2 analytically  !
 ! A74   A(4,22,46)            117.7125         calculate D2E/DX2 analytically  !
 ! A75   A(10,22,46)           116.5863         calculate D2E/DX2 analytically  !
 ! A76   A(5,23,11)            125.9574         calculate D2E/DX2 analytically  !
 ! A77   A(5,23,47)            118.6134         calculate D2E/DX2 analytically  !
 ! A78   A(11,23,47)           115.4284         calculate D2E/DX2 analytically  !
 ! A79   A(4,24,25)            106.4707         calculate D2E/DX2 analytically  !
 ! A80   A(4,24,38)            109.6631         calculate D2E/DX2 analytically  !
 ! A81   A(4,24,48)            110.0217         calculate D2E/DX2 analytically  !
 ! A82   A(25,24,38)           111.5037         calculate D2E/DX2 analytically  !
 ! A83   A(25,24,48)           109.4087         calculate D2E/DX2 analytically  !
 ! A84   A(38,24,48)           109.7222         calculate D2E/DX2 analytically  !
 ! A85   A(5,25,24)            105.4569         calculate D2E/DX2 analytically  !
 ! A86   A(5,25,39)            116.6872         calculate D2E/DX2 analytically  !
 ! A87   A(5,25,49)            105.5774         calculate D2E/DX2 analytically  !
 ! A88   A(24,25,39)           111.6047         calculate D2E/DX2 analytically  !
 ! A89   A(24,25,49)           107.7493         calculate D2E/DX2 analytically  !
 ! A90   A(39,25,49)           109.2679         calculate D2E/DX2 analytically  !
 ! A91   A(14,26,50)           109.9284         calculate D2E/DX2 analytically  !
 ! A92   A(14,26,51)           111.4835         calculate D2E/DX2 analytically  !
 ! A93   A(14,26,52)           110.982          calculate D2E/DX2 analytically  !
 ! A94   A(50,26,51)           108.415          calculate D2E/DX2 analytically  !
 ! A95   A(50,26,52)           107.4658         calculate D2E/DX2 analytically  !
 ! A96   A(51,26,52)           108.4413         calculate D2E/DX2 analytically  !
 ! A97   A(14,27,53)           110.8568         calculate D2E/DX2 analytically  !
 ! A98   A(14,27,54)           111.5444         calculate D2E/DX2 analytically  !
 ! A99   A(14,27,55)           110.2246         calculate D2E/DX2 analytically  !
 ! A100  A(53,27,54)           108.3579         calculate D2E/DX2 analytically  !
 ! A101  A(53,27,55)           107.5481         calculate D2E/DX2 analytically  !
 ! A102  A(54,27,55)           108.1767         calculate D2E/DX2 analytically  !
 ! A103  A(14,28,56)           109.2619         calculate D2E/DX2 analytically  !
 ! A104  A(14,28,57)           112.2485         calculate D2E/DX2 analytically  !
 ! A105  A(14,28,58)           112.431          calculate D2E/DX2 analytically  !
 ! A106  A(56,28,57)           107.3914         calculate D2E/DX2 analytically  !
 ! A107  A(56,28,58)           107.3102         calculate D2E/DX2 analytically  !
 ! A108  A(57,28,58)           107.9589         calculate D2E/DX2 analytically  !
 ! A109  A(15,29,59)           109.9649         calculate D2E/DX2 analytically  !
 ! A110  A(15,29,60)           111.5372         calculate D2E/DX2 analytically  !
 ! A111  A(15,29,61)           110.9404         calculate D2E/DX2 analytically  !
 ! A112  A(59,29,60)           108.3974         calculate D2E/DX2 analytically  !
 ! A113  A(59,29,61)           107.4527         calculate D2E/DX2 analytically  !
 ! A114  A(60,29,61)           108.4208         calculate D2E/DX2 analytically  !
 ! A115  A(15,30,62)           109.2507         calculate D2E/DX2 analytically  !
 ! A116  A(15,30,63)           112.3105         calculate D2E/DX2 analytically  !
 ! A117  A(15,30,64)           112.4073         calculate D2E/DX2 analytically  !
 ! A118  A(62,30,63)           107.3635         calculate D2E/DX2 analytically  !
 ! A119  A(62,30,64)           107.2988         calculate D2E/DX2 analytically  !
 ! A120  A(63,30,64)           107.9677         calculate D2E/DX2 analytically  !
 ! A121  A(15,31,65)           110.7897         calculate D2E/DX2 analytically  !
 ! A122  A(15,31,66)           111.5811         calculate D2E/DX2 analytically  !
 ! A123  A(15,31,67)           110.2837         calculate D2E/DX2 analytically  !
 ! A124  A(65,31,66)           108.3593         calculate D2E/DX2 analytically  !
 ! A125  A(65,31,67)           107.5466         calculate D2E/DX2 analytically  !
 ! A126  A(66,31,67)           108.1468         calculate D2E/DX2 analytically  !
 ! A127  A(20,32,68)           109.8845         calculate D2E/DX2 analytically  !
 ! A128  A(20,32,69)           111.9922         calculate D2E/DX2 analytically  !
 ! A129  A(20,32,70)           111.9396         calculate D2E/DX2 analytically  !
 ! A130  A(68,32,69)           107.4581         calculate D2E/DX2 analytically  !
 ! A131  A(68,32,70)           107.466          calculate D2E/DX2 analytically  !
 ! A132  A(69,32,70)           107.892          calculate D2E/DX2 analytically  !
 ! A133  A(20,33,71)           110.5621         calculate D2E/DX2 analytically  !
 ! A134  A(20,33,72)           111.2204         calculate D2E/DX2 analytically  !
 ! A135  A(20,33,73)           111.8526         calculate D2E/DX2 analytically  !
 ! A136  A(71,33,72)           107.7899         calculate D2E/DX2 analytically  !
 ! A137  A(71,33,73)           107.4746         calculate D2E/DX2 analytically  !
 ! A138  A(72,33,73)           107.7607         calculate D2E/DX2 analytically  !
 ! A139  A(20,34,74)           111.7987         calculate D2E/DX2 analytically  !
 ! A140  A(20,34,75)           111.2018         calculate D2E/DX2 analytically  !
 ! A141  A(20,34,76)           110.5981         calculate D2E/DX2 analytically  !
 ! A142  A(74,34,75)           107.7436         calculate D2E/DX2 analytically  !
 ! A143  A(74,34,76)           107.5177         calculate D2E/DX2 analytically  !
 ! A144  A(75,34,76)           107.8034         calculate D2E/DX2 analytically  !
 ! A145  A(21,35,77)           110.64           calculate D2E/DX2 analytically  !
 ! A146  A(21,35,78)           111.723          calculate D2E/DX2 analytically  !
 ! A147  A(21,35,79)           111.2274         calculate D2E/DX2 analytically  !
 ! A148  A(77,35,78)           107.5436         calculate D2E/DX2 analytically  !
 ! A149  A(77,35,79)           107.7845         calculate D2E/DX2 analytically  !
 ! A150  A(78,35,79)           107.7455         calculate D2E/DX2 analytically  !
 ! A151  A(21,36,80)           111.2232         calculate D2E/DX2 analytically  !
 ! A152  A(21,36,81)           111.6548         calculate D2E/DX2 analytically  !
 ! A153  A(21,36,82)           110.675          calculate D2E/DX2 analytically  !
 ! A154  A(80,36,81)           107.7435         calculate D2E/DX2 analytically  !
 ! A155  A(80,36,82)           107.7846         calculate D2E/DX2 analytically  !
 ! A156  A(81,36,82)           107.5857         calculate D2E/DX2 analytically  !
 ! A157  A(21,37,83)           109.7414         calculate D2E/DX2 analytically  !
 ! A158  A(21,37,84)           112.0725         calculate D2E/DX2 analytically  !
 ! A159  A(21,37,85)           112.1043         calculate D2E/DX2 analytically  !
 ! A160  A(83,37,84)           107.3987         calculate D2E/DX2 analytically  !
 ! A161  A(83,37,85)           107.4027         calculate D2E/DX2 analytically  !
 ! A162  A(84,37,85)           107.9006         calculate D2E/DX2 analytically  !
 ! A163  A(24,38,40)           111.7566         calculate D2E/DX2 analytically  !
 ! A164  A(24,38,86)           108.195          calculate D2E/DX2 analytically  !
 ! A165  A(24,38,87)           108.9018         calculate D2E/DX2 analytically  !
 ! A166  A(40,38,86)           109.7325         calculate D2E/DX2 analytically  !
 ! A167  A(40,38,87)           111.4273         calculate D2E/DX2 analytically  !
 ! A168  A(86,38,87)           106.6457         calculate D2E/DX2 analytically  !
 ! A169  A(25,39,41)           112.7992         calculate D2E/DX2 analytically  !
 ! A170  A(25,39,88)           106.5122         calculate D2E/DX2 analytically  !
 ! A171  A(25,39,89)           110.6564         calculate D2E/DX2 analytically  !
 ! A172  A(41,39,88)           109.2532         calculate D2E/DX2 analytically  !
 ! A173  A(41,39,89)           111.6909         calculate D2E/DX2 analytically  !
 ! A174  A(88,39,89)           105.5258         calculate D2E/DX2 analytically  !
 ! A175  A(38,40,41)           110.8723         calculate D2E/DX2 analytically  !
 ! A176  A(38,40,90)           109.8616         calculate D2E/DX2 analytically  !
 ! A177  A(38,40,91)           109.492          calculate D2E/DX2 analytically  !
 ! A178  A(41,40,90)           110.7233         calculate D2E/DX2 analytically  !
 ! A179  A(41,40,91)           109.3307         calculate D2E/DX2 analytically  !
 ! A180  A(90,40,91)           106.4546         calculate D2E/DX2 analytically  !
 ! A181  A(39,41,40)           110.5835         calculate D2E/DX2 analytically  !
 ! A182  A(39,41,92)           109.7442         calculate D2E/DX2 analytically  !
 ! A183  A(39,41,93)           109.9871         calculate D2E/DX2 analytically  !
 ! A184  A(40,41,92)           110.683          calculate D2E/DX2 analytically  !
 ! A185  A(40,41,93)           109.3992         calculate D2E/DX2 analytically  !
 ! A186  A(92,41,93)           106.3553         calculate D2E/DX2 analytically  !
 ! A187  L(2,1,5,4,-1)         179.6472         calculate D2E/DX2 analytically  !
 ! A188  L(3,1,4,5,-1)         180.429          calculate D2E/DX2 analytically  !
 ! A189  L(2,1,5,4,-2)         187.8386         calculate D2E/DX2 analytically  !
 ! A190  L(3,1,4,5,-2)         186.7851         calculate D2E/DX2 analytically  !
 ! D1    D(3,1,2,8)            175.2996         calculate D2E/DX2 analytically  !
 ! D2    D(4,1,2,8)              2.0743         calculate D2E/DX2 analytically  !
 ! D3    D(8,2,5,23)          -179.8565         calculate D2E/DX2 analytically  !
 ! D4    D(8,2,5,25)            -9.707          calculate D2E/DX2 analytically  !
 ! D5    D(2,1,3,9)            178.7633         calculate D2E/DX2 analytically  !
 ! D6    D(5,1,3,9)              6.505          calculate D2E/DX2 analytically  !
 ! D7    D(9,3,4,22)          -176.6226         calculate D2E/DX2 analytically  !
 ! D8    D(9,3,4,24)            -4.5963         calculate D2E/DX2 analytically  !
 ! D9    D(2,1,4,22)            -0.9712         calculate D2E/DX2 analytically  !
 ! D10   D(2,1,4,24)           175.0151         calculate D2E/DX2 analytically  !
 ! D11   D(5,1,4,22)           171.1902         calculate D2E/DX2 analytically  !
 ! D12   D(5,1,4,24)           -12.8235         calculate D2E/DX2 analytically  !
 ! D13   D(3,1,5,23)            -1.5555         calculate D2E/DX2 analytically  !
 ! D14   D(3,1,5,25)           172.9141         calculate D2E/DX2 analytically  !
 ! D15   D(4,1,5,23)           171.6594         calculate D2E/DX2 analytically  !
 ! D16   D(4,1,5,25)           -13.871          calculate D2E/DX2 analytically  !
 ! D17   D(1,2,8,6)            177.7336         calculate D2E/DX2 analytically  !
 ! D18   D(1,2,8,10)            -2.0318         calculate D2E/DX2 analytically  !
 ! D19   D(1,3,9,7)            172.1947         calculate D2E/DX2 analytically  !
 ! D20   D(1,3,9,11)            -7.6329         calculate D2E/DX2 analytically  !
 ! D21   D(1,4,22,10)           -0.1326         calculate D2E/DX2 analytically  !
 ! D22   D(1,4,22,46)          179.7438         calculate D2E/DX2 analytically  !
 ! D23   D(24,4,22,10)        -175.8389         calculate D2E/DX2 analytically  !
 ! D24   D(24,4,22,46)           4.0375         calculate D2E/DX2 analytically  !
 ! D25   D(1,4,24,25)           35.042          calculate D2E/DX2 analytically  !
 ! D26   D(1,4,24,38)          -85.7259         calculate D2E/DX2 analytically  !
 ! D27   D(1,4,24,48)          153.5025         calculate D2E/DX2 analytically  !
 ! D28   D(22,4,24,25)        -148.6665         calculate D2E/DX2 analytically  !
 ! D29   D(22,4,24,38)          90.5655         calculate D2E/DX2 analytically  !
 ! D30   D(22,4,24,48)         -30.2061         calculate D2E/DX2 analytically  !
 ! D31   D(1,5,23,11)           -2.1776         calculate D2E/DX2 analytically  !
 ! D32   D(1,5,23,47)          178.144          calculate D2E/DX2 analytically  !
 ! D33   D(25,5,23,11)        -176.1369         calculate D2E/DX2 analytically  !
 ! D34   D(25,5,23,47)           4.1847         calculate D2E/DX2 analytically  !
 ! D35   D(1,5,25,24)           35.3769         calculate D2E/DX2 analytically  !
 ! D36   D(1,5,25,39)          159.8877         calculate D2E/DX2 analytically  !
 ! D37   D(1,5,25,49)          -78.5418         calculate D2E/DX2 analytically  !
 ! D38   D(23,5,25,24)        -149.8964         calculate D2E/DX2 analytically  !
 ! D39   D(23,5,25,39)         -25.3856         calculate D2E/DX2 analytically  !
 ! D40   D(23,5,25,49)          96.1849         calculate D2E/DX2 analytically  !
 ! D41   D(14,6,8,2)            -1.3269         calculate D2E/DX2 analytically  !
 ! D42   D(14,6,8,10)          178.4507         calculate D2E/DX2 analytically  !
 ! D43   D(16,6,8,2)           179.4307         calculate D2E/DX2 analytically  !
 ! D44   D(16,6,8,10)           -0.7917         calculate D2E/DX2 analytically  !
 ! D45   D(8,6,14,26)           58.7403         calculate D2E/DX2 analytically  !
 ! D46   D(8,6,14,27)          -62.2253         calculate D2E/DX2 analytically  !
 ! D47   D(8,6,14,28)          178.5587         calculate D2E/DX2 analytically  !
 ! D48   D(16,6,14,26)        -122.0423         calculate D2E/DX2 analytically  !
 ! D49   D(16,6,14,27)         116.9922         calculate D2E/DX2 analytically  !
 ! D50   D(16,6,14,28)          -2.2238         calculate D2E/DX2 analytically  !
 ! D51   D(8,6,16,12)            0.4535         calculate D2E/DX2 analytically  !
 ! D52   D(8,6,16,42)         -179.6685         calculate D2E/DX2 analytically  !
 ! D53   D(14,6,16,12)        -178.7794         calculate D2E/DX2 analytically  !
 ! D54   D(14,6,16,42)           1.0986         calculate D2E/DX2 analytically  !
 ! D55   D(15,7,9,3)            -3.4717         calculate D2E/DX2 analytically  !
 ! D56   D(15,7,9,11)          176.3643         calculate D2E/DX2 analytically  !
 ! D57   D(17,7,9,3)           178.1026         calculate D2E/DX2 analytically  !
 ! D58   D(17,7,9,11)           -2.0614         calculate D2E/DX2 analytically  !
 ! D59   D(9,7,15,29)           59.6625         calculate D2E/DX2 analytically  !
 ! D60   D(9,7,15,30)          179.6667         calculate D2E/DX2 analytically  !
 ! D61   D(9,7,15,31)          -61.3333         calculate D2E/DX2 analytically  !
 ! D62   D(17,7,15,29)        -121.9576         calculate D2E/DX2 analytically  !
 ! D63   D(17,7,15,30)          -1.9534         calculate D2E/DX2 analytically  !
 ! D64   D(17,7,15,31)         117.0466         calculate D2E/DX2 analytically  !
 ! D65   D(9,7,17,13)            0.604          calculate D2E/DX2 analytically  !
 ! D66   D(9,7,17,43)         -179.6251         calculate D2E/DX2 analytically  !
 ! D67   D(15,7,17,13)        -177.8018         calculate D2E/DX2 analytically  !
 ! D68   D(15,7,17,43)           1.9691         calculate D2E/DX2 analytically  !
 ! D69   D(2,8,10,18)         -179.6317         calculate D2E/DX2 analytically  !
 ! D70   D(2,8,10,22)            0.3703         calculate D2E/DX2 analytically  !
 ! D71   D(6,8,10,18)            0.6            calculate D2E/DX2 analytically  !
 ! D72   D(6,8,10,22)         -179.398          calculate D2E/DX2 analytically  !
 ! D73   D(3,9,11,19)         -177.9538         calculate D2E/DX2 analytically  !
 ! D74   D(3,9,11,23)            2.5599         calculate D2E/DX2 analytically  !
 ! D75   D(7,9,11,19)            2.216          calculate D2E/DX2 analytically  !
 ! D76   D(7,9,11,23)         -177.2702         calculate D2E/DX2 analytically  !
 ! D77   D(8,10,18,12)          -0.0237         calculate D2E/DX2 analytically  !
 ! D78   D(8,10,18,44)         179.9142         calculate D2E/DX2 analytically  !
 ! D79   D(22,10,18,12)        179.9744         calculate D2E/DX2 analytically  !
 ! D80   D(22,10,18,44)         -0.0877         calculate D2E/DX2 analytically  !
 ! D81   D(8,10,22,4)            0.7539         calculate D2E/DX2 analytically  !
 ! D82   D(8,10,22,46)        -179.1237         calculate D2E/DX2 analytically  !
 ! D83   D(18,10,22,4)        -179.2442         calculate D2E/DX2 analytically  !
 ! D84   D(18,10,22,46)          0.8782         calculate D2E/DX2 analytically  !
 ! D85   D(9,11,19,13)          -0.8654         calculate D2E/DX2 analytically  !
 ! D86   D(9,11,19,45)         179.4252         calculate D2E/DX2 analytically  !
 ! D87   D(23,11,19,13)        178.6489         calculate D2E/DX2 analytically  !
 ! D88   D(23,11,19,45)         -1.0605         calculate D2E/DX2 analytically  !
 ! D89   D(9,11,23,5)            2.5703         calculate D2E/DX2 analytically  !
 ! D90   D(9,11,23,47)        -177.7424         calculate D2E/DX2 analytically  !
 ! D91   D(19,11,23,5)        -176.9321         calculate D2E/DX2 analytically  !
 ! D92   D(19,11,23,47)          2.7552         calculate D2E/DX2 analytically  !
 ! D93   D(18,12,16,6)           0.1225         calculate D2E/DX2 analytically  !
 ! D94   D(18,12,16,42)       -179.7565         calculate D2E/DX2 analytically  !
 ! D95   D(20,12,16,6)        -179.9529         calculate D2E/DX2 analytically  !
 ! D96   D(20,12,16,42)          0.1681         calculate D2E/DX2 analytically  !
 ! D97   D(16,12,18,10)         -0.3406         calculate D2E/DX2 analytically  !
 ! D98   D(16,12,18,44)        179.7239         calculate D2E/DX2 analytically  !
 ! D99   D(20,12,18,10)        179.7385         calculate D2E/DX2 analytically  !
 ! D100  D(20,12,18,44)         -0.1971         calculate D2E/DX2 analytically  !
 ! D101  D(16,12,20,32)       -179.2352         calculate D2E/DX2 analytically  !
 ! D102  D(16,12,20,33)        -58.9314         calculate D2E/DX2 analytically  !
 ! D103  D(16,12,20,34)         60.4455         calculate D2E/DX2 analytically  !
 ! D104  D(18,12,20,32)          0.6838         calculate D2E/DX2 analytically  !
 ! D105  D(18,12,20,33)        120.9876         calculate D2E/DX2 analytically  !
 ! D106  D(18,12,20,34)       -119.6355         calculate D2E/DX2 analytically  !
 ! D107  D(19,13,17,7)           0.773          calculate D2E/DX2 analytically  !
 ! D108  D(19,13,17,43)       -178.9978         calculate D2E/DX2 analytically  !
 ! D109  D(21,13,17,7)        -179.6236         calculate D2E/DX2 analytically  !
 ! D110  D(21,13,17,43)          0.6057         calculate D2E/DX2 analytically  !
 ! D111  D(17,13,19,11)         -0.6344         calculate D2E/DX2 analytically  !
 ! D112  D(17,13,19,45)        179.0665         calculate D2E/DX2 analytically  !
 ! D113  D(21,13,19,11)        179.7511         calculate D2E/DX2 analytically  !
 ! D114  D(21,13,19,45)         -0.548          calculate D2E/DX2 analytically  !
 ! D115  D(17,13,21,35)       -121.016          calculate D2E/DX2 analytically  !
 ! D116  D(17,13,21,36)        119.7068         calculate D2E/DX2 analytically  !
 ! D117  D(17,13,21,37)         -0.6415         calculate D2E/DX2 analytically  !
 ! D118  D(19,13,21,35)         58.573          calculate D2E/DX2 analytically  !
 ! D119  D(19,13,21,36)        -60.7042         calculate D2E/DX2 analytically  !
 ! D120  D(19,13,21,37)        178.9475         calculate D2E/DX2 analytically  !
 ! D121  D(6,14,26,50)         177.4433         calculate D2E/DX2 analytically  !
 ! D122  D(6,14,26,51)         -62.3049         calculate D2E/DX2 analytically  !
 ! D123  D(6,14,26,52)          58.6947         calculate D2E/DX2 analytically  !
 ! D124  D(27,14,26,50)        -61.4574         calculate D2E/DX2 analytically  !
 ! D125  D(27,14,26,51)         58.7944         calculate D2E/DX2 analytically  !
 ! D126  D(27,14,26,52)        179.794          calculate D2E/DX2 analytically  !
 ! D127  D(28,14,26,50)         54.9075         calculate D2E/DX2 analytically  !
 ! D128  D(28,14,26,51)        175.1593         calculate D2E/DX2 analytically  !
 ! D129  D(28,14,26,52)        -63.8411         calculate D2E/DX2 analytically  !
 ! D130  D(6,14,27,53)         -61.7015         calculate D2E/DX2 analytically  !
 ! D131  D(6,14,27,54)          59.1473         calculate D2E/DX2 analytically  !
 ! D132  D(6,14,27,55)         179.3374         calculate D2E/DX2 analytically  !
 ! D133  D(26,14,27,53)        176.5541         calculate D2E/DX2 analytically  !
 ! D134  D(26,14,27,54)        -62.5972         calculate D2E/DX2 analytically  !
 ! D135  D(26,14,27,55)         57.5929         calculate D2E/DX2 analytically  !
 ! D136  D(28,14,27,53)         60.2476         calculate D2E/DX2 analytically  !
 ! D137  D(28,14,27,54)       -178.9036         calculate D2E/DX2 analytically  !
 ! D138  D(28,14,27,55)        -58.7135         calculate D2E/DX2 analytically  !
 ! D139  D(6,14,28,56)        -179.9541         calculate D2E/DX2 analytically  !
 ! D140  D(6,14,28,57)         -60.9388         calculate D2E/DX2 analytically  !
 ! D141  D(6,14,28,58)          61.0176         calculate D2E/DX2 analytically  !
 ! D142  D(26,14,28,56)        -58.1637         calculate D2E/DX2 analytically  !
 ! D143  D(26,14,28,57)         60.8516         calculate D2E/DX2 analytically  !
 ! D144  D(26,14,28,58)       -177.192          calculate D2E/DX2 analytically  !
 ! D145  D(27,14,28,56)         59.5193         calculate D2E/DX2 analytically  !
 ! D146  D(27,14,28,57)        178.5346         calculate D2E/DX2 analytically  !
 ! D147  D(27,14,28,58)        -59.509          calculate D2E/DX2 analytically  !
 ! D148  D(7,15,29,59)         177.9516         calculate D2E/DX2 analytically  !
 ! D149  D(7,15,29,60)         -61.7595         calculate D2E/DX2 analytically  !
 ! D150  D(7,15,29,61)          59.222          calculate D2E/DX2 analytically  !
 ! D151  D(30,15,29,59)         55.1685         calculate D2E/DX2 analytically  !
 ! D152  D(30,15,29,60)        175.4574         calculate D2E/DX2 analytically  !
 ! D153  D(30,15,29,61)        -63.5611         calculate D2E/DX2 analytically  !
 ! D154  D(31,15,29,59)        -61.1034         calculate D2E/DX2 analytically  !
 ! D155  D(31,15,29,60)         59.1856         calculate D2E/DX2 analytically  !
 ! D156  D(31,15,29,61)       -179.833          calculate D2E/DX2 analytically  !
 ! D157  D(7,15,30,62)         179.6812         calculate D2E/DX2 analytically  !
 ! D158  D(7,15,30,63)         -61.307          calculate D2E/DX2 analytically  !
 ! D159  D(7,15,30,64)          60.6894         calculate D2E/DX2 analytically  !
 ! D160  D(29,15,30,62)        -58.235          calculate D2E/DX2 analytically  !
 ! D161  D(29,15,30,63)         60.7768         calculate D2E/DX2 analytically  !
 ! D162  D(29,15,30,64)       -177.2267         calculate D2E/DX2 analytically  !
 ! D163  D(31,15,30,62)         59.4598         calculate D2E/DX2 analytically  !
 ! D164  D(31,15,30,63)        178.4717         calculate D2E/DX2 analytically  !
 ! D165  D(31,15,30,64)        -59.5319         calculate D2E/DX2 analytically  !
 ! D166  D(7,15,31,65)         -62.0188         calculate D2E/DX2 analytically  !
 ! D167  D(7,15,31,66)          58.8106         calculate D2E/DX2 analytically  !
 ! D168  D(7,15,31,67)         179.0268         calculate D2E/DX2 analytically  !
 ! D169  D(29,15,31,65)        176.1274         calculate D2E/DX2 analytically  !
 ! D170  D(29,15,31,66)        -63.0432         calculate D2E/DX2 analytically  !
 ! D171  D(29,15,31,67)         57.1729         calculate D2E/DX2 analytically  !
 ! D172  D(30,15,31,65)         59.8618         calculate D2E/DX2 analytically  !
 ! D173  D(30,15,31,66)       -179.3089         calculate D2E/DX2 analytically  !
 ! D174  D(30,15,31,67)        -59.0927         calculate D2E/DX2 analytically  !
 ! D175  D(12,20,32,68)        179.8636         calculate D2E/DX2 analytically  !
 ! D176  D(12,20,32,69)        -60.7867         calculate D2E/DX2 analytically  !
 ! D177  D(12,20,32,70)         60.5377         calculate D2E/DX2 analytically  !
 ! D178  D(33,20,32,68)         58.8654         calculate D2E/DX2 analytically  !
 ! D179  D(33,20,32,69)        178.2152         calculate D2E/DX2 analytically  !
 ! D180  D(33,20,32,70)        -60.4605         calculate D2E/DX2 analytically  !
 ! D181  D(34,20,32,68)        -59.2144         calculate D2E/DX2 analytically  !
 ! D182  D(34,20,32,69)         60.1354         calculate D2E/DX2 analytically  !
 ! D183  D(34,20,32,70)       -178.5402         calculate D2E/DX2 analytically  !
 ! D184  D(12,20,33,71)        179.5753         calculate D2E/DX2 analytically  !
 ! D185  D(12,20,33,72)        -60.7085         calculate D2E/DX2 analytically  !
 ! D186  D(12,20,33,73)         59.8408         calculate D2E/DX2 analytically  !
 ! D187  D(32,20,33,71)        -57.9843         calculate D2E/DX2 analytically  !
 ! D188  D(32,20,33,72)         61.7319         calculate D2E/DX2 analytically  !
 ! D189  D(32,20,33,73)       -177.7188         calculate D2E/DX2 analytically  !
 ! D190  D(34,20,33,71)         59.8237         calculate D2E/DX2 analytically  !
 ! D191  D(34,20,33,72)        179.5398         calculate D2E/DX2 analytically  !
 ! D192  D(34,20,33,73)        -59.9108         calculate D2E/DX2 analytically  !
 ! D193  D(12,20,34,74)        -59.4579         calculate D2E/DX2 analytically  !
 ! D194  D(12,20,34,75)         61.0197         calculate D2E/DX2 analytically  !
 ! D195  D(12,20,34,76)       -179.2356         calculate D2E/DX2 analytically  !
 ! D196  D(32,20,34,74)        178.1205         calculate D2E/DX2 analytically  !
 ! D197  D(32,20,34,75)        -61.4019         calculate D2E/DX2 analytically  !
 ! D198  D(32,20,34,76)         58.3429         calculate D2E/DX2 analytically  !
 ! D199  D(33,20,34,74)         60.3525         calculate D2E/DX2 analytically  !
 ! D200  D(33,20,34,75)       -179.1699         calculate D2E/DX2 analytically  !
 ! D201  D(33,20,34,76)        -59.4251         calculate D2E/DX2 analytically  !
 ! D202  D(13,21,35,77)       -179.5637         calculate D2E/DX2 analytically  !
 ! D203  D(13,21,35,78)        -59.7751         calculate D2E/DX2 analytically  !
 ! D204  D(13,21,35,79)         60.6706         calculate D2E/DX2 analytically  !
 ! D205  D(36,21,35,77)        -59.9229         calculate D2E/DX2 analytically  !
 ! D206  D(36,21,35,78)         59.8658         calculate D2E/DX2 analytically  !
 ! D207  D(36,21,35,79)       -179.6885         calculate D2E/DX2 analytically  !
 ! D208  D(37,21,35,77)         57.641          calculate D2E/DX2 analytically  !
 ! D209  D(37,21,35,78)        177.4297         calculate D2E/DX2 analytically  !
 ! D210  D(37,21,35,79)        -62.1246         calculate D2E/DX2 analytically  !
 ! D211  D(13,21,36,80)        -60.7416         calculate D2E/DX2 analytically  !
 ! D212  D(13,21,36,81)         59.6521         calculate D2E/DX2 analytically  !
 ! D213  D(13,21,36,82)        179.4722         calculate D2E/DX2 analytically  !
 ! D214  D(35,21,36,80)        179.5286         calculate D2E/DX2 analytically  !
 ! D215  D(35,21,36,81)        -60.0777         calculate D2E/DX2 analytically  !
 ! D216  D(35,21,36,82)         59.7424         calculate D2E/DX2 analytically  !
 ! D217  D(37,21,36,80)         62.0007         calculate D2E/DX2 analytically  !
 ! D218  D(37,21,36,81)       -177.6057         calculate D2E/DX2 analytically  !
 ! D219  D(37,21,36,82)        -57.7855         calculate D2E/DX2 analytically  !
 ! D220  D(13,21,37,83)       -179.9372         calculate D2E/DX2 analytically  !
 ! D221  D(13,21,37,84)        -60.706          calculate D2E/DX2 analytically  !
 ! D222  D(13,21,37,85)         60.8061         calculate D2E/DX2 analytically  !
 ! D223  D(35,21,37,83)        -58.8121         calculate D2E/DX2 analytically  !
 ! D224  D(35,21,37,84)         60.4192         calculate D2E/DX2 analytically  !
 ! D225  D(35,21,37,85)       -178.0687         calculate D2E/DX2 analytically  !
 ! D226  D(36,21,37,83)         59.0785         calculate D2E/DX2 analytically  !
 ! D227  D(36,21,37,84)        178.3098         calculate D2E/DX2 analytically  !
 ! D228  D(36,21,37,85)        -60.1781         calculate D2E/DX2 analytically  !
 ! D229  D(4,24,25,5)          -43.83           calculate D2E/DX2 analytically  !
 ! D230  D(4,24,25,39)        -171.4694         calculate D2E/DX2 analytically  !
 ! D231  D(4,24,25,49)          68.5689         calculate D2E/DX2 analytically  !
 ! D232  D(38,24,25,5)          75.749          calculate D2E/DX2 analytically  !
 ! D233  D(38,24,25,39)        -51.8904         calculate D2E/DX2 analytically  !
 ! D234  D(38,24,25,49)       -171.8521         calculate D2E/DX2 analytically  !
 ! D235  D(48,24,25,5)        -162.6923         calculate D2E/DX2 analytically  !
 ! D236  D(48,24,25,39)         69.6683         calculate D2E/DX2 analytically  !
 ! D237  D(48,24,25,49)        -50.2934         calculate D2E/DX2 analytically  !
 ! D238  D(4,24,38,40)         172.0281         calculate D2E/DX2 analytically  !
 ! D239  D(4,24,38,86)          51.1085         calculate D2E/DX2 analytically  !
 ! D240  D(4,24,38,87)         -64.4392         calculate D2E/DX2 analytically  !
 ! D241  D(25,24,38,40)         54.3575         calculate D2E/DX2 analytically  !
 ! D242  D(25,24,38,86)        -66.5621         calculate D2E/DX2 analytically  !
 ! D243  D(25,24,38,87)        177.8902         calculate D2E/DX2 analytically  !
 ! D244  D(48,24,38,40)        -67.0192         calculate D2E/DX2 analytically  !
 ! D245  D(48,24,38,86)        172.0613         calculate D2E/DX2 analytically  !
 ! D246  D(48,24,38,87)         56.5135         calculate D2E/DX2 analytically  !
 ! D247  D(5,25,39,41)         -68.4333         calculate D2E/DX2 analytically  !
 ! D248  D(5,25,39,88)         171.7197         calculate D2E/DX2 analytically  !
 ! D249  D(5,25,39,89)          57.5069         calculate D2E/DX2 analytically  !
 ! D250  D(24,25,39,41)         52.8921         calculate D2E/DX2 analytically  !
 ! D251  D(24,25,39,88)        -66.9549         calculate D2E/DX2 analytically  !
 ! D252  D(24,25,39,89)        178.8323         calculate D2E/DX2 analytically  !
 ! D253  D(49,25,39,41)        171.9558         calculate D2E/DX2 analytically  !
 ! D254  D(49,25,39,88)         52.1087         calculate D2E/DX2 analytically  !
 ! D255  D(49,25,39,89)        -62.1041         calculate D2E/DX2 analytically  !
 ! D256  D(24,38,40,41)        -56.7364         calculate D2E/DX2 analytically  !
 ! D257  D(24,38,40,90)       -179.4475         calculate D2E/DX2 analytically  !
 ! D258  D(24,38,40,91)         63.9791         calculate D2E/DX2 analytically  !
 ! D259  D(86,38,40,41)         63.2852         calculate D2E/DX2 analytically  !
 ! D260  D(86,38,40,90)        -59.4259         calculate D2E/DX2 analytically  !
 ! D261  D(86,38,40,91)       -175.9993         calculate D2E/DX2 analytically  !
 ! D262  D(87,38,40,41)       -178.8306         calculate D2E/DX2 analytically  !
 ! D263  D(87,38,40,90)         58.4583         calculate D2E/DX2 analytically  !
 ! D264  D(87,38,40,91)        -58.1151         calculate D2E/DX2 analytically  !
 ! D265  D(25,39,41,40)        -55.039          calculate D2E/DX2 analytically  !
 ! D266  D(25,39,41,92)       -177.4264         calculate D2E/DX2 analytically  !
 ! D267  D(25,39,41,93)         65.9003         calculate D2E/DX2 analytically  !
 ! D268  D(88,39,41,40)         63.2156         calculate D2E/DX2 analytically  !
 ! D269  D(88,39,41,92)        -59.1718         calculate D2E/DX2 analytically  !
 ! D270  D(88,39,41,93)       -175.8451         calculate D2E/DX2 analytically  !
 ! D271  D(89,39,41,40)        179.5793         calculate D2E/DX2 analytically  !
 ! D272  D(89,39,41,92)         57.1919         calculate D2E/DX2 analytically  !
 ! D273  D(89,39,41,93)        -59.4814         calculate D2E/DX2 analytically  !
 ! D274  D(38,40,41,39)         56.3725         calculate D2E/DX2 analytically  !
 ! D275  D(38,40,41,92)        178.2091         calculate D2E/DX2 analytically  !
 ! D276  D(38,40,41,93)        -64.9154         calculate D2E/DX2 analytically  !
 ! D277  D(90,40,41,39)        178.5827         calculate D2E/DX2 analytically  !
 ! D278  D(90,40,41,92)        -59.5807         calculate D2E/DX2 analytically  !
 ! D279  D(90,40,41,93)         57.2947         calculate D2E/DX2 analytically  !
 ! D280  D(91,40,41,39)        -64.4385         calculate D2E/DX2 analytically  !
 ! D281  D(91,40,41,92)         57.3981         calculate D2E/DX2 analytically  !
 ! D282  D(91,40,41,93)        174.2735         calculate D2E/DX2 analytically  !
 --------------------------------------------------------------------------------
 Trust Radius=3.00D-01 FncErr=5.00D-06 GrdErr=5.00D-06 EigMax=2.50D+02 EigMin=1.00D-04
 Number of steps in this run=    558 maximum allowed number of steps=    558.
 GradGradGradGradGradGradGradGradGradGradGradGradGradGradGradGradGradGrad

 Symmetry turned off by external request.
 Stoichiometry    C36H52CoN2O2(1-)
 Framework group  C1[X(C36H52CoN2O2)]
 Deg. of freedom   273
 Full point group                 C1      NOp   1
                          Input orientation:                          
 ---------------------------------------------------------------------
 Center     Atomic      Atomic             Coordinates (Angstroms)
 Number     Number       Type             X           Y           Z
 ---------------------------------------------------------------------
      1         27           0        0.132964    0.263556   -1.211220
      2          8           0        1.365458   -1.182535   -1.296991
      3          8           0       -1.218526   -1.033626   -0.903038
      4          7           0        1.412485    1.531492   -1.729986
      5          7           0       -1.006805    1.730472   -0.884340
      6          6           0        3.389099   -2.374191   -1.540209
      7          6           0       -3.374208   -1.963002   -0.650402
      8          6           0        2.632373   -1.152403   -1.582202
      9          6           0       -2.486914   -0.838211   -0.696353
     10          6           0        3.324200    0.049880   -1.935952
     11          6           0       -3.050866    0.466182   -0.512940
     12          6           0        5.432601   -1.145280   -2.218430
     13          6           0       -5.285926   -0.462776   -0.173874
     14          6           0        2.712674   -3.688826   -1.133677
     15          6           0       -2.841856   -3.375353   -0.922638
     16          6           0        4.735546   -2.322230   -1.859326
     17          6           0       -4.719936   -1.735604   -0.388526
     18          6           0        4.704262    0.023069   -2.244796
     19          6           0       -4.427339    0.616727   -0.249227
     20          6           0        6.921822   -1.226653   -2.549115
     21          6           0       -6.773183   -0.250341    0.120694
     22          6           0        2.666054    1.316034   -1.993708
     23          6           0       -2.269932    1.663319   -0.595788
     24          6           0        0.836478    2.868259   -1.915272
     25          6           0       -0.265668    3.015577   -0.863208
     26          6           0        1.541060   -4.012338   -2.073948
     27          6           0        2.196487   -3.581083    0.309730
     28          6           0        3.681586   -4.871556   -1.187632
     29          6           0       -1.744511   -3.752689    0.084640
     30          6           0       -3.941008   -4.434407   -0.818061
     31          6           0       -2.274637   -3.442274   -2.349751
     32          6           0        7.505315    0.141710   -2.894481
     33          6           0        7.686762   -1.789091   -1.343360
     34          6           0        7.129813   -2.160543   -3.749009
     35          6           0       -7.384828    0.660462   -0.951974
     36          6           0       -6.931347    0.422122    1.490791
     37          6           0       -7.554463   -1.563423    0.136708
     38          6           0        0.278471    2.996116   -3.333423
     39          6           0       -1.084357    4.281009   -1.082140
     40          6           0       -0.502229    4.289809   -3.518080
     41          6           0       -1.630487    4.392875   -2.499881
     42          1           0        5.303777   -3.246371   -1.832374
     43          1           0       -5.378345   -2.594497   -0.350440
     44          1           0        5.172166    0.968111   -2.507134
     45          1           0       -4.802638    1.629015   -0.108542
     46          1           0        3.278981    2.173827   -2.288734
     47          1           0       -2.811513    2.591211   -0.398511
     48          1           0        1.604441    3.634786   -1.748852
     49          1           0        0.216396    3.061832    0.122455
     50          1           0        1.096836   -4.975716   -1.799390
     51          1           0        0.765608   -3.248627   -2.022636
     52          1           0        1.881629   -4.091259   -3.112353
     53          1           0        3.023232   -3.411063    1.007899
     54          1           0        1.481038   -2.765278    0.419361
     55          1           0        1.700662   -4.512669    0.605308
     56          1           0        3.154708   -5.783651   -0.891130
     57          1           0        4.079360   -5.035977   -2.194319
     58          1           0        4.528985   -4.748694   -0.505824
     59          1           0       -1.401723   -4.776862   -0.101607
     60          1           0       -0.887055   -3.084326    0.011116
     61          1           0       -2.125618   -3.715286    1.111196
     62          1           0       -3.513244   -5.420083   -1.025548
     63          1           0       -4.385323   -4.474940    0.181683
     64          1           0       -4.747632   -4.271221   -1.539669
     65          1           0       -3.058013   -3.243594   -3.089221
     66          1           0       -1.471863   -2.718542   -2.496774
     67          1           0       -1.874342   -4.442011   -2.552983
     68          1           0        8.571102    0.045005   -3.122670
     69          1           0        7.020875    0.584663   -3.770285
     70          1           0        7.409944    0.848378   -2.064075
     71          1           0        8.756654   -1.861327   -1.566188
     72          1           0        7.570679   -1.145668   -0.465195
     73          1           0        7.339438   -2.790315   -1.071740
     74          1           0        6.759407   -3.170025   -3.547154
     75          1           0        6.610454   -1.785927   -4.637011
     76          1           0        8.194328   -2.242697   -3.993382
     77          1           0       -8.448548    0.830470   -0.753384
     78          1           0       -6.894455    1.637859   -0.980817
     79          1           0       -7.297758    0.213925   -1.947807
     80          1           0       -6.513858   -0.200732    2.288553
     81          1           0       -6.425548    1.391665    1.525468
     82          1           0       -7.989297    0.592423    1.718219
     83          1           0       -8.609105   -1.363442    0.349243
     84          1           0       -7.507213   -2.081931   -0.826121
     85          1           0       -7.189832   -2.250253    0.906926
     86          1           0       -0.378936    2.135739   -3.522445
     87          1           0        1.104975    2.922240   -4.047808
     88          1           0       -0.411948    5.125235   -0.885864
     89          1           0       -1.879496    4.360212   -0.335184
     90          1           0       -0.894913    4.344750   -4.538122
     91          1           0        0.174750    5.146705   -3.398688
     92          1           0       -2.169707    5.338196   -2.614826
     93          1           0       -2.362182    3.595130   -2.684276
 ---------------------------------------------------------------------
 Rotational constants (GHZ):           0.1313150           0.0480327           0.0370631
 General basis read from cards:  (5D, 7F)
 ======================================================================================================
                                       Pseudopotential Parameters
 ======================================================================================================
  Center     Atomic      Valence      Angular      Power
  Number     Number     Electrons     Momentum     of R      Exponent        Coefficient   SO-Coeffient
 ======================================================================================================
    1         27           17
                                      F and up 
                                                     2        1.0000000        0.00000000    0.00000000
                                      S - F
                                                     2       23.6600000      283.96056600    0.00000000
                                                     2       10.6100000       47.15684600    0.00000000
                                      P - F
                                                     2       25.0400000      182.21223600    0.00000000
                                                     2       10.4400000       35.23335200    0.00000000
                                      D - F
                                                     2       29.5400000      -26.47533300    0.00000000
                                                     2       10.1800000       -1.82578700    0.00000000
    2          8
                                   No pseudopotential on this center.
    3          8
                                   No pseudopotential on this center.
    4          7
                                   No pseudopotential on this center.
    5          7
                                   No pseudopotential on this center.
    6          6
                                   No pseudopotential on this center.
    7          6
                                   No pseudopotential on this center.
    8          6
                                   No pseudopotential on this center.
    9          6
                                   No pseudopotential on this center.
   10          6
                                   No pseudopotential on this center.
   11          6
                                   No pseudopotential on this center.
   12          6
                                   No pseudopotential on this center.
   13          6
                                   No pseudopotential on this center.
   14          6
                                   No pseudopotential on this center.
   15          6
                                   No pseudopotential on this center.
   16          6
                                   No pseudopotential on this center.
   17          6
                                   No pseudopotential on this center.
   18          6
                                   No pseudopotential on this center.
   19          6
                                   No pseudopotential on this center.
   20          6
                                   No pseudopotential on this center.
   21          6
                                   No pseudopotential on this center.
   22          6
                                   No pseudopotential on this center.
   23          6
                                   No pseudopotential on this center.
   24          6
                                   No pseudopotential on this center.
   25          6
                                   No pseudopotential on this center.
   26          6
                                   No pseudopotential on this center.
   27          6
                                   No pseudopotential on this center.
   28          6
                                   No pseudopotential on this center.
   29          6
                                   No pseudopotential on this center.
   30          6
                                   No pseudopotential on this center.
   31          6
                                   No pseudopotential on this center.
   32          6
                                   No pseudopotential on this center.
   33          6
                                   No pseudopotential on this center.
   34          6
                                   No pseudopotential on this center.
   35          6
                                   No pseudopotential on this center.
   36          6
                                   No pseudopotential on this center.
   37          6
                                   No pseudopotential on this center.
   38          6
                                   No pseudopotential on this center.
   39          6
                                   No pseudopotential on this center.
   40          6
                                   No pseudopotential on this center.
   41          6
                                   No pseudopotential on this center.
   42          1
                                   No pseudopotential on this center.
   43          1
                                   No pseudopotential on this center.
   44          1
                                   No pseudopotential on this center.
   45          1
                                   No pseudopotential on this center.
   46          1
                                   No pseudopotential on this center.
   47          1
                                   No pseudopotential on this center.
   48          1
                                   No pseudopotential on this center.
   49          1
                                   No pseudopotential on this center.
   50          1
                                   No pseudopotential on this center.
   51          1
                                   No pseudopotential on this center.
   52          1
                                   No pseudopotential on this center.
   53          1
                                   No pseudopotential on this center.
   54          1
                                   No pseudopotential on this center.
   55          1
                                   No pseudopotential on this center.
   56          1
                                   No pseudopotential on this center.
   57          1
                                   No pseudopotential on this center.
   58          1
                                   No pseudopotential on this center.
   59          1
                                   No pseudopotential on this center.
   60          1
                                   No pseudopotential on this center.
   61          1
                                   No pseudopotential on this center.
   62          1
                                   No pseudopotential on this center.
   63          1
                                   No pseudopotential on this center.
   64          1
                                   No pseudopotential on this center.
   65          1
                                   No pseudopotential on this center.
   66          1
                                   No pseudopotential on this center.
   67          1
                                   No pseudopotential on this center.
   68          1
                                   No pseudopotential on this center.
   69          1
                                   No pseudopotential on this center.
   70          1
                                   No pseudopotential on this center.
   71          1
                                   No pseudopotential on this center.
   72          1
                                   No pseudopotential on this center.
   73          1
                                   No pseudopotential on this center.
   74          1
                                   No pseudopotential on this center.
   75          1
                                   No pseudopotential on this center.
   76          1
                                   No pseudopotential on this center.
   77          1
                                   No pseudopotential on this center.
   78          1
                                   No pseudopotential on this center.
   79          1
                                   No pseudopotential on this center.
   80          1
                                   No pseudopotential on this center.
   81          1
                                   No pseudopotential on this center.
   82          1
                                   No pseudopotential on this center.
   83          1
                                   No pseudopotential on this center.
   84          1
                                   No pseudopotential on this center.
   85          1
                                   No pseudopotential on this center.
   86          1
                                   No pseudopotential on this center.
   87          1
                                   No pseudopotential on this center.
   88          1
                                   No pseudopotential on this center.
   89          1
                                   No pseudopotential on this center.
   90          1
                                   No pseudopotential on this center.
   91          1
                                   No pseudopotential on this center.
   92          1
                                   No pseudopotential on this center.
   93          1
                                   No pseudopotential on this center.
 ======================================================================================================
  1287 basis functions,  1983 primitive gaussians,  1333 cartesian basis functions
   158 alpha electrons      158 beta electrons
       nuclear repulsion energy      5394.5523587393 Hartrees.
 NAtoms=   93 NActive=   93 NUniq=   93 SFac= 1.00D+00 NAtFMM=   60 NAOKFM=T Big=T
 Integral buffers will be    131072 words long.
 Raffenetti 2 integral format.
 Two-electron integral symmetry is turned off.
 Standard density basis: Auto (5D, 7F)
  5934 Density fitting functions
 Force inversion solution in PCM.
 ------------------------------------------------------------------------------
 Polarizable Continuum Model (PCM)
 =================================
 Model                : PCM.
 Atomic radii         : SMD-Coulomb.
 Polarization charges : Total charges.
 Charge compensation  : None.
 Solution method      : Matrix inversion.
 Cavity type          : VdW (van der Waals Surface) (Alpha=1.000).
 Cavity algorithm     : GePol (No added spheres)
                        Default sphere list used, NSphG=   93.
                        Lebedev-Laikov grids with approx.  5.0 points / Ang**2.
                        Smoothing algorithm: York/Karplus (Gamma=1.0000).
                        Polarization charges: spherical gaussians, with
                                              point-specific exponents (IZeta= 3).
                        Self-potential: point-specific (ISelfS= 7).
                        Self-field    : sphere-specific E.n sum rule (ISelfD= 2).
 1st derivatives      : Analytical E(r).r(x)/FMM algorithm (CHGder, D1EAlg=3).
                        Cavity 1st derivative terms included.
 2nd derivatives      : Analytical E(r).r(xy)/FMM algorithm (CHGder, D2EAlg=3).
                        Cavity 2nd derivative terms included.
 Solvent              : n,n-DiMethylFormamide, Eps=  37.219000 Eps(inf)=   2.046330
 ------------------------------------------------------------------------------
 ------------------------------------------------------------------------------
 Atomic radii for non-electrostatic terms: SMD-CDS.
 ------------------------------------------------------------------------------
 Nuclear repulsion after PCM non-electrostatic terms =     5394.5455030464 Hartrees.
 One-electron integrals computed using PRISM.
   1 Symmetry operations used in ECPInt.
 ECPInt:  NShTT=  132870 NPrTT=  411758 LenC2=  103943 LenP2D=  215650.
 LDataN:  DoStor=T MaxTD1= 6 Len=  172
 NBasis=  1287 RedAO= T EigKep=  1.04D-06  NBF=  1287
 NBsUse=  1271 1.00D-06 EigRej=  8.55D-07 NBFU=  1271
 NBasis=     1287 NBas6D=     1333 NTT=      828828   NTT6D=   889111
 NDBShl=      968 NDBF=       5934 NDBF6D=     6973  NNucDB=        0
 IDenFi=        2 ISolve=        0 FullAP=F BlkAPC=T NucTyp=        0
 TolInv= 1.00D-06 TolIt=  1.00D-10 IR12=0.
 FoFCou: FMM=F IPFlag=           0 FMFlag=           0 FMFlg1=           0
         NFxFlg=           0 DoJE=F BraDBF=T KetDBF=T FulRan=T
         wScrn=  0.000000 ICntrl=       600 IOpCl=  3 I1Cent=           6 NGrid=           0
         NMat0=    1 NMatS0=   6973 NMatT0=    0 NMatD0=    1 NMtDS0=    0 NMtDT0=    0
 Symmetry not used in FoFCou.
 DBF EigKep=  1.02D-06 EigRej=  9.96D-07
 NDBF=   5934  NBFD=  5934
 NRank=  5518 NBFDU=  5518
 S*AI*S=  19.9175147971    
 ExpMin= 1.00D-02 ExpMax= 8.59D+03 ExpMxC= 1.30D+03 IAcc=3 IRadAn=         5 AccDes= 0.00D+00
 Harris functional with IExCor= 1009 and IRadAn=       5 diagonalized for initial guess.
 HarFok:  IExCor= 1009 AccDes= 0.00D+00 IRadAn=         5 IDoV= 1 UseB2=F ITyADJ=14
 ICtDFT=  3500011 ScaDFX=  1.000000  1.000000  1.000000  1.000000
 FoFCou: FMM=F IPFlag=           0 FMFlag=      100000 FMFlg1=        2001
         NFxFlg=           0 DoJE=T BraDBF=F KetDBF=T FulRan=T
         wScrn=  0.000000 ICntrl=       500 IOpCl=  0 I1Cent=   200000004 NGrid=           0
         NMat0=    1 NMatS0=      1 NMatT0=    0 NMatD0=    1 NMtDS0=    0 NMtDT0=    0
 Symmetry not used in FoFCou.
 Requested convergence on RMS density matrix=1.00D-08 within  32 cycles.
 Requested convergence on MAX density matrix=1.00D-06.
 Requested convergence on             energy=1.00D-06.
 No special actions if energy rises.
 FoFCou: FMM=F IPFlag=           0 FMFlag=      100000 FMFlg1=        2001
         NFxFlg=           0 DoJE=T BraDBF=T KetDBF=F FulRan=T
         wScrn=  0.000000 ICntrl=       500 IOpCl=  0 I1Cent=           5 NGrid=           0
         NMat0=    1 NMatS0=      1 NMatT0=    0 NMatD0=    1 NMtDS0=    0 NMtDT0=    0
 Symmetry not used in FoFCou.
 Inv3:  Mode=1 IEnd=   100920000.
 Iteration    1 A*A^-1 deviation from unit magnitude is 3.55D-15 for    249.
 Iteration    1 A*A^-1 deviation from orthogonality  is 2.55D-15 for   4234   1998.
 Iteration    1 A^-1*A deviation from unit magnitude is 3.22D-15 for    927.
 Iteration    1 A^-1*A deviation from orthogonality  is 2.17D-14 for   4114   4113.
 EnCoef did     6 forward-backward iterations
 Rare condition: small coef for last iteration:  0.000D+00
 EnCoef did   100 forward-backward iterations
 EnCoef did     8 forward-backward iterations
 EnCoef did   100 forward-backward iterations
 Restarting incremental Fock formation.
 Error on total polarization charges =  0.09582
 SCF Done:  E(RM06L) =  -1809.46784159     A.U. after   28 cycles
            NFock= 28  Conv=0.67D-08     -V/T= 2.0369
 SMD-CDS (non-electrostatic) energy       (kcal/mol) =      -4.30
 (included in total energy above)
 QCSCF skips out because SCF is already converged.
 DoSCS=F DFT=T ScalE2(SS,OS)=  1.000000  1.000000
 Range of M.O.s used for correlation:     1  1271
 NBasis=  1287 NAE=   158 NBE=   158 NFC=     0 NFV=     0
[...]
 65,0.00000738,0.00005822,-0.00004682,-0.00002463,-0.00019906,0.0002550
 4,0.00015284,-0.00002065,0.00002098,0.00000089,0.00003648,0.00002493,-
 0.00000512,-0.00000156,-0.00002464,0.00000578,-0.00003732,-0.00001911,
 -0.00001085,0.00004817,-0.00000306,-0.00000746,-0.00004245,-0.00002662
 ,0.00001519,0.00001013,-0.00004341,0.00000350,-0.00002582,-0.00006065,
 0.00000028,0.00000893,0.00000868,-0.00000581,0.00000024,0.00001275,-0.
 00000029,0.00004408,-0.00000316,-0.00000733,-0.00006195,0.00000690,0.0
 0001589,-0.00003330,0.00000366,0.00001482,0.00006721,-0.00001122,-0.00
 001454,-0.00001737,-0.00000059,0.00000038,0.00001663,-0.00000236,-0.00
 000222,-0.00005329,-0.00001641,0.00001000,0.00030606,0.00004498,0.0000
 6120,-0.00036796,0.00001234,-0.00007310,-0.00033871,0.00164625,0.00053
 338,-0.00000165,-0.00000258,0.00000312,-0.00000106,-0.00000333,-0.0000
 0305,-0.00000619,-0.00000132,0.00000499,-0.00000243,-0.00000419,-0.000
 00512,0.00000566,-0.00000263,0.00000208,0.00000081,-0.00000360,0.00000
 284,0.00000418,-0.00000416,-0.00000053,0.00000474,0.00000184,-0.000006
 06,0.00000717,0.00000045,0.00000489,-0.00001011,-0.00000643,0.00000401
 ,-0.00000732,-0.00000186,-0.00000588,-0.00000606,0.00000378,0.00000084
 ,0.00053597,0.00131706,-0.00066935,-0.00019143,-0.00172134,-0.00087043
 ,-0.00172989,-0.00031239,0.00040386,0.11043744,-0.24128642,0.02530720,
 0.00000422,-0.00000062,-0.00000107,-0.00000381,-0.00000100,0.00000005,
 0.00000007,0.00000306,-0.00000259,-0.00000066,0.00000959,0.00000010,0.
 00000503,0.00000929,-0.00000307,0.00005096,-0.00005215,-0.00001220,0.0
 0003695,0.00000684,0.00001039,0.00020850,-0.00038194,0.00001082,-0.000
 00155,-0.00000538,0.00000064,0.00000369,0.00000561,0.00000097,0.000001
 07,-0.00000017,0.00000104,0.00000243,0.00000003,0.00000163,0.00000040,
 0.00000212,-0.00000463,-0.00000232,-0.00000473,0.00000263,0.00000024,-
 0.00000083,0.00000026,0.00000048,-0.00000049,-0.00000197,0.00000049,-0
 .00000066,-0.00000111,0.00000190,-0.00000414,0.00000219,-0.00000262,0.
 00000683,-0.00000317,0.00000009,0.00000029,0.00000161,-0.00000131,-0.0
 0000354,-0.00000015,-0.00000057,-0.00000075,-0.00000102,-0.00000074,-0
 .00000028,-0.00000036,-0.00000055,0.00000169,0.00000101,-0.00000048,0.
 00000434,0.00000272,0.00000180,-0.00000434,-0.00000344,0.00000141,-0.0
 0000013,0.00000016,0.00000019,-0.00000007,-0.00000037,0.00000010,-0.00
 000053,0.00000028,0.00000531,-0.00000067,0.00000162,0.00000112,-0.0000
 0101,-0.00000036,-0.00000111,-0.00000026,0.00000058,0.00000101,0.00000
 088,0.00000172,-0.00000083,0.00000144,-0.00000216,0.00000247,-0.000001
 19,-0.00000282,-0.00000558,0.00000285,-0.00000093,0.00000330,0.0000015
 4,0.00000120,0.00000125,0.00000048,-0.00000007,-0.00000016,-0.00000052
 ,0.00000015,0.00000135,0.00000023,0.00000016,-0.00000289,0.00000107,0.
 00000415,-0.00000401,-0.00000013,0.00000064,0.00000143,-0.00000001,0.0
 0000001,0.00000026,0.00000165,-0.00000118,-0.00009274,0.00029157,0.000
 00078,0.00035798,-0.00020023,0.00023335,0.00007965,0.00073978,0.000239
 49,-0.00017749,0.00018282,0.00025191,0.00003481,0.00013569,-0.00036140
 ,0.00030489,0.00071711,-0.00020883,-0.12142459,0.25776798,0.00009458,0
 .00003215,0.00016525,-0.00006990,0.00002814,-0.00000712,-0.00002954,0.
 00002323,-0.00002403,0.00003539,0.00006055,0.00033664,0.00003300,-0.00
 026919,0.00001064,0.00000373,-0.00001313,0.00000227,-0.00004098,-0.000
 02288,0.00001121,0.00003179,0.00003596,-0.00000721,0.00006229,-0.00001
 113,-0.00000746,-0.00003602,-0.00002987,-0.00001878,0.00013959,0.00010
 449,-0.00004159,-0.00000898,0.00001616,-0.00000027,0.00003605,0.000085
 50,0.00000322,-0.00000190,-0.00000840,0.00000212,0.00000429,-0.0000112
 6,-0.00000351,-0.00002864,0.00001145,0.00000573,0.00006971,-0.00002303
 ,-0.00001706,0.00000821,0.00000642,-0.00000676,-0.00009304,0.00001705,
 0.00001318,0.00000798,0.00000349,-0.00000075,-0.00001531,0.00000793,0.
 00000083,-0.00010864,0.00005210,0.00006241,-0.00028021,-0.00008712,0.0
 0017618,0.00047938,-0.00009575,-0.00088210,-0.00140732,-0.00189840,-0.
 00611217,0.00000132,0.00000254,-0.00000356,0.00000072,0.00000181,0.000
 00046,0.00000335,0.00000168,-0.00000078,0.00000061,0.00000417,0.000004
 20,-0.00000535,0.00000387,0.00000300,-0.00000164,0.00000671,-0.0000021
 1,-0.00000105,0.00000266,0.00000111,-0.00000281,-0.00000128,0.00000349
 ,-0.00000589,-0.00000179,-0.00000262,0.00000509,0.00000070,-0.00000455
 ,0.00000641,-0.00000064,0.00000376,0.00000543,-0.00000539,0.00000066,0
 .00371711,0.00096732,-0.00281244,-0.01605686,0.02927654,-0.00452255,0.
 00988672,-0.01996095,0.00224869,-0.01439252,0.02474308,-0.04871741,-0.
 00000328,0.00000033,0.00000011,0.00000336,0.00000044,-0.00000254,-0.00
 000192,-0.00000366,0.00000013,0.00000046,-0.00000856,-0.00000213,-0.00
 001342,-0.00000452,0.00000886,-0.00004712,-0.00003656,-0.00003456,-0.0
 0003951,-0.00000122,0.00008051,-0.00129556,0.00162614,-0.00043011,0.00
 000082,0.00000289,0.00000121,-0.00000195,-0.00000432,-0.00000142,-0.00
 000143,0.00000094,0.00000110,-0.00000113,0.00000010,-0.00000022,-0.000
 00073,-0.00000203,0.00000425,0.00000136,0.00000308,-0.00000234,0.,0.00
 000251,-0.00000097,-0.00000047,0.00000021,0.00000023,-0.00000003,-0.00
 000012,0.00000021,-0.00000230,0.00000473,-0.00000112,0.00000270,-0.000
 00675,0.00000337,0.00000042,0.00000098,-0.00000117,0.00000065,0.000003
 77,0.00000031,0.00000107,0.00000034,-0.00000006,0.00000044,-0.00000040
 ,0.00000005,0.00000239,0.00000114,0.00000052,-0.00000053,-0.00000540,-
 0.00000531,-0.00000097,0.00000352,0.00000334,-0.00000216,-0.00000091,0
 .00000059,-0.00000074,-0.00000027,-0.00000064,0.00000037,-0.00000049,0
 .,-0.00000311,0.00000076,-0.00000144,0.00000007,0.00000062,0.00000019,
 0.00000054,-0.00000041,0.00000008,0.00000021,-0.00000037,-0.00000028,0
 .00000016,-0.00000015,0.00000095,-0.00000153,0.00000150,0.00000256,0.0
 0000391,-0.00000247,0.00000143,-0.00000034,-0.00000079,-0.00000015,-0.
 00000107,0.00000096,0.00000192,0.00000044,-0.00000036,0.00000015,-0.00
 000071,-0.00000053,-0.00000010,0.00000247,-0.00000118,-0.00000354,0.00
 000360,0.00000145,-0.00000103,-0.00000009,0.00000058,-0.00000067,-0.00
 000051,-0.00000071,0.00000073,-0.00016330,0.00024035,-0.00006347,0.001
 14853,-0.00116919,0.00028126,0.00035800,-0.00039839,0.00151868,0.00069
 359,-0.00006607,0.00142534,-0.00088187,-0.00012968,0.00076992,-0.00065
 018,0.00039751,0.00069278,0.01513719,-0.02783201,0.05611980,-0.0000041
 1,0.00000576,-0.00006657,0.00003165,-0.00001183,0.00000388,0.00001313,
 0.00000673,-0.00000078,-0.00016364,0.00002870,-0.00000164,-0.00002033,
 0.00019893,0.00020320,0.00000336,0.00000012,-0.00000012,0.00002393,0.0
 0001143,0.00000007,-0.00003105,-0.00001743,0.00000604,-0.00001302,-0.0
 0001153,-0.00001262,-0.00002467,0.00003530,0.00000749,-0.00000155,0.00
 004089,-0.00003305,-0.00000096,0.00000746,-0.00000242,-0.00001053,-0.0
 0002349,-0.00000454,0.00000172,0.00000099,-0.00000206,-0.00000289,0.00
 000270,0.00000122,-0.00000147,-0.00000882,0.00000115,-0.00002216,0.000
 00655,0.00000825,0.00001204,0.00000131,0.00000121,0.00002011,0.0000037
 7,-0.00002115,-0.00000436,-0.00000079,-0.00000067,0.00000578,-0.000001
 79,-0.00000053,0.00010006,0.00002006,-0.00003954,0.00029242,0.00007118
 ,0.00019123,-0.00001135,0.00010476,0.00002722,0.00008467,-0.00105340,0
 .00034611,0.00000036,0.00000082,0.00000013,-0.00000024,0.00000025,0.00
 000024,-0.00000077,0.00000015,0.00000015,-0.00000230,-0.00000179,-0.00
 000150,0.00000258,-0.00000222,0.00000113,-0.00000219,-0.00000124,-0.00
 000050,0.00000054,-0.00000019,0.,0.00000015,0.00000018,-0.00000053,0.0
 0000073,0.00000003,0.00000036,-0.00000165,-0.00000150,-0.00000232,-0.0
 0000219,-0.00000139,-0.00000126,-0.00000226,0.00000306,-0.00000113,0.0
 0120389,-0.00122977,-0.00077179,-0.00724255,-0.00715588,-0.00264457,-0
 .01781898,-0.01937670,-0.00458261,-0.14798826,-0.11653628,-0.03415544,
 0.00000013,0.00000045,0.00000035,-0.00000105,0.00000040,-0.00000112,0.
 00000050,0.00000097,-0.00000112,-0.00000118,0.00001605,-0.00000268,0.0
 0000192,-0.00000710,-0.00000489,0.00005684,-0.00004393,0.00011132,0.00
 004915,0.00001234,0.00002804,0.00001320,0.00012430,-0.00001406,0.00000
 035,-0.00000108,0.00000050,0.00000046,0.,-0.00000027,-0.00000102,0.000
 00028,0.00000103,0.00000080,-0.00000051,0.00000045,0.00000085,-0.00000
 040,-0.00000066,-0.00000023,-0.00000101,0.00000032,0.00000012,0.000000
 38,0.00000002,-0.00000037,0.00000026,-0.00000049,0.00000064,-0.0000003
 0,0.00000035,0.00000125,-0.00000044,0.00000025,-0.00000040,0.00000198,
 -0.00000139,-0.00000009,-0.00000015,0.00000179,-0.00000033,-0.00000120
 ,-0.00000059,-0.00000154,-0.00000104,0.00000040,0.00000173,0.00000143,
 -0.00000013,0.00000289,0.00000257,0.00000280,-0.00000160,0.00000179,-0
 .00000151,0.00000132,-0.00000329,-0.00000078,-0.00000041,-0.00000009,-
 0.00000010,0.00000052,-0.00000027,-0.00000052,0.00000095,-0.00000023,0
 .00000056,0.00000074,0.00000015,-0.00000021,0.00000009,0.00000006,0.00
 000058,0.,-0.00000026,-0.00000056,0.00000090,0.00000029,0.00000066,-0.
 00000003,0.00000019,0.00000016,-0.00000027,0.00000043,0.00000003,-0.00
 000116,0.00000032,0.00000061,-0.00000034,-0.00000134,-0.00000024,0.000
 00082,0.00000164,0.00000218,-0.00000063,-0.00000070,0.00000066,-0.0000
 0013,-0.00000018,-0.00000102,-0.00000055,0.00000137,0.00000136,-0.0000
 0189,-0.00000030,0.00000013,0.00000113,0.00000034,0.00000044,-0.000000
 06,-0.00000032,-0.00000055,0.00008721,0.00050196,-0.00003429,0.0002962
 8,0.00012770,0.00012774,0.00013486,0.00016875,-0.00202041,0.00048465,0
 .00034927,0.00006006,0.00124724,0.00036851,-0.00021843,-0.00376868,0.0
 0030031,0.00344716,0.00995341,0.01210521,0.00370709,0.16301737,-0.0001
 0658,0.00008917,-0.00009368,-0.00001118,0.00001714,0.00002846,0.000030
 64,-0.00000228,0.00000390,-0.00006420,0.00005792,-0.00003416,0.0001995
 2,-0.00031337,0.00042674,0.00001186,-0.00001471,-0.00000205,0.00001377
 ,0.00000473,0.00000028,-0.00000147,0.00001225,0.00000125,-0.00000432,-
 0.00000981,-0.00000943,-0.00003689,0.00001355,0.00001117,0.00003121,0.
 00009112,-0.00006509,-0.00000875,0.00003371,-0.00000534,0.00001541,0.0
 0000244,-0.00000560,-0.00000151,-0.00000716,0.00000174,0.00000110,-0.0
 0000377,-0.00000012,-0.00002813,-0.00000195,0.00000807,-0.00000065,0.0
 0000562,0.00000168,0.00002490,-0.00000360,-0.00000127,-0.00002908,0.00
 003353,-0.00001474,0.00000566,-0.00000302,-0.00000563,-0.00000605,0.00
 000295,0.00000047,0.00003607,-0.00000060,-0.00002544,-0.00000015,-0.00
 022546,0.00038867,0.00015566,0.00000941,0.00013587,0.00030414,-0.00007
 323,-0.00029951,0.00000104,0.00000436,-0.00000380,0.00000052,0.0000036
 3,0.00000031,0.00000267,0.00000166,-0.00000058,-0.00000049,0.00000152,
 0.00000091,-0.00000086,-0.00000150,0.00000157,-0.00000144,0.00000049,-
 0.00000157,-0.00000166,0.00000305,0.00000279,-0.00000268,-0.00000024,0
 .00000228,-0.00000410,-0.00000127,-0.00000075,0.00000201,0.00000418,-0
 .00000615,0.00000378,0.00000207,-0.00000218,0.00000159,-0.00000114,-0.
 00000114,0.00073949,0.00094871,0.00008544,0.00207767,0.00214462,0.0001
 5286,0.00100191,-0.00013650,0.00066452,-0.11750330,-0.18660771,-0.0393
 5776,-0.00000366,0.00000117,0.00000065,0.00000038,-0.00000088,-0.00000
 119,-0.00000021,-0.00000335,-0.00000066,0.00000415,0.00000184,-0.00000
 611,-0.00000052,-0.00000327,0.00000152,0.00004099,0.00012872,-0.000030
 08,-0.00000712,-0.00005060,-0.00000323,-0.00015981,0.00013975,-0.00008
 798,0.00000062,0.00000220,0.00000155,-0.00000266,-0.00000442,-0.000001
 98,-0.00000147,0.00000052,0.00000254,-0.00000021,-0.00000007,0.0000001
 7,-0.00000045,-0.00000336,0.00000245,0.00000255,0.00000309,-0.00000292
 ,0.,0.00000265,-0.00000044,-0.00000035,0.00000066,-0.00000005,0.000000
 02,0.00000012,-0.00000023,0.00000047,0.00000156,-0.00000028,0.00000124
 ,-0.00000148,0.00000080,0.00000005,0.00000078,0.00000037,-0.00000021,-
 0.00000017,-0.00000096,-0.00000108,0.00000002,0.00000041,0.00000190,0.
 00000163,0.00000004,0.00000230,0.00000060,0.00000211,-0.00000088,-0.00
 000086,-0.00000389,-0.00000051,0.00000143,0.00000092,-0.00000084,-0.00
 000042,0.00000026,-0.00000032,-0.00000026,-0.00000027,0.00000020,-0.00
 000094,-0.00000026,-0.00000305,0.00000086,-0.00000069,-0.00000023,0.00
 000064,0.00000115,0.00000029,-0.00000032,-0.00000035,0.00000077,0.0000
 0001,-0.00000005,0.00000195,-0.00000122,0.00000008,-0.00000253,0.00000
 103,0.00000209,0.00000095,-0.00000167,0.00000296,-0.00000005,-0.000003
 06,-0.00000164,0.00000245,0.00000286,0.00000164,0.00000007,-0.00000157
 ,0.00000219,-0.00000086,0.00000035,-0.00000040,0.00000127,-0.00000021,
 -0.00000057,0.00000054,0.00000012,-0.00000032,0.00000047,0.00000107,0.
 00000125,-0.00000029,-0.00000253,0.00000078,-0.00039527,0.00023590,-0.
 00012167,-0.00001687,0.00015540,0.00005006,0.00025985,0.00120977,0.000
 37865,-0.00013062,0.00014649,-0.00035039,-0.00009899,0.00022101,0.0002
 9639,0.00022947,0.00121569,0.00022010,-0.01743033,-0.01895248,-0.00567
 283,0.13085935,0.19947470,0.00020027,-0.00006452,0.00001990,0.00002463
 ,-0.00003045,-0.00002536,-0.00001802,0.00001616,0.00000620,-0.00015173
 ,-0.00000321,0.00015100,-0.00036188,0.00078246,0.00025749,0.00000101,0
 .00000489,0.00000215,0.00000639,-0.00000897,-0.00000653,-0.00003735,-0
 .00001994,0.00000648,-0.00000250,-0.00002420,-0.00000676,-0.00000772,0
 .00002732,-0.00001223,0.00011027,0.00001950,-0.00002661,0.00000487,-0.
 00000875,0.00000140,0.00000238,0.00000058,0.00000742,0.00000133,0.0000
 0628,-0.00000166,-0.00000407,0.00000113,0.00000404,0.00001573,-0.00000
 858,-0.00000173,-0.00000067,-0.00000375,0.00000116,-0.00000596,0.00000
 130,-0.00000002,-0.00001334,0.00001253,0.00001009,-0.00000526,-0.00000
 306,0.00000043,0.00000162,-0.00000078,-0.00000267,0.00006014,0.0000293
 7,-0.00001804,0.00022415,0.00013546,0.00007226,0.00009116,0.00002488,-
 0.00026950,0.00047864,-0.00077501,0.00132989,-0.00000098,-0.00000274,0
 .00000345,-0.00000128,-0.00000269,-0.00000039,-0.00000200,-0.00000112,
 -0.00000047,0.00000030,-0.00000161,-0.00000020,0.00000242,-0.00000262,
 -0.00000038,-0.00000004,-0.00000207,0.00000028,0.00000129,-0.00000124,
 0.00000064,0.00000185,0.00000097,-0.00000254,0.00000245,0.00000119,0.0
 0000084,-0.00000026,0.00000372,0.00000187,-0.00000099,-0.00000057,-0.0
 0000026,-0.00000178,0.00000146,0.00000006,-0.00092591,0.00067982,0.000
 58790,-0.02049695,-0.02518865,-0.00801968,0.01496865,0.01683879,0.0030
 2055,-0.03435040,-0.03911234,-0.05683759,0.00000108,-0.00000033,-0.000
 00128,-0.00000159,-0.00000180,-0.00000100,0.00000095,0.00000169,-0.000
 00181,0.00000428,-0.00000432,-0.00000337,0.00000540,0.00000013,-0.0000
 0113,0.00001003,-0.00012806,-0.00012526,0.00000456,-0.00000751,-0.0000
 1127,0.00025572,0.00005793,0.00001646,-0.00000076,-0.00000123,-0.00000
 036,0.00000124,0.00000226,0.00000086,0.00000056,-0.00000038,-0.0000020
 5,0.00000124,-0.00000024,0.00000032,-0.00000002,0.00000090,-0.00000291
 ,-0.00000071,-0.00000108,0.00000122,-0.00000011,-0.00000183,0.00000044
 ,-0.00000005,0.00000025,0.00000073,0.00000050,-0.00000011,0.00000053,0
 .00000079,-0.00000105,0.00000028,-0.00000100,0.00000169,-0.00000145,-0
 .00000063,-0.00000102,0.00000060,-0.00000051,-0.00000131,-0.00000029,-
 0.00000003,0.00000034,0.00000066,0.00000034,-0.00000002,-0.00000044,-0
 .00000091,-0.00000065,-0.00000047,0.00000137,0.00000058,0.00000128,0.0
 0000089,-0.00000111,-0.00000087,0.00000163,0.00000081,-0.00000013,0.00
 000005,0.00000011,0.00000018,-0.00000003,0.00000016,-0.00000034,0.0000
 0187,-0.00000041,0.00000103,-0.00000020,0.00000030,0.00000023,-0.00000
 027,0.00000041,0.00000015,-0.00000002,0.00000040,0.00000001,0.00000040
 ,-0.00000001,0.00000020,0.00000119,-0.00000088,-0.00000109,-0.00000014
 ,-0.00000089,-0.00000029,-0.00000049,-0.00000023,0.00000116,0.00000074
 ,0.00000014,-0.00000172,0.00000028,-0.00000018,0.00000031,-0.00000011,
 0.00000125,-0.00000085,-0.00000130,0.00000051,0.00000130,-0.00000085,-
 0.00000090,0.00000019,-0.00000031,0.00000015,0.00000034,0.00000005,-0.
 00000120,0.00000016,-0.00028030,-0.00027559,0.00000334,-0.00023458,0.0
 0006443,-0.00009079,-0.00270024,0.00084898,-0.00606750,0.00067584,0.00
 001654,0.00133406,-0.00079089,0.00020937,0.00093759,0.00428986,-0.0003
 2133,-0.00198236,0.00258754,0.00288807,-0.00022756,0.03635721,0.043335
 31,0.06597009\\0.00000125,0.00000237,-0.00000178,-0.00000018,-0.000000
 02,-0.00000059,0.00000018,-0.00000016,0.00000099,-0.00000090,-0.000001
 18,-0.00000190,-0.00000103,-0.00000058,-0.00000109,0.00000051,-0.00000
 065,0.00000092,0.00000003,-0.00000063,0.00000064,-0.00000031,0.0000004
 9,0.00000052,0.00000005,0.00000057,-0.00000015,-0.00000037,-0.00000038
 ,0.00000003,0.00000017,-0.00000053,-0.00000094,-0.00000006,0.00000052,
 0.00000028,0.00000078,0.00000096,-0.00000019,0.00000007,0.00000050,0.0
 0000154,-0.00000057,-0.00000010,0.00000108,0.00000006,0.00000037,0.000
 00082,0.00000007,0.00000038,0.00000010,0.00000010,-0.00000024,-0.00000
 054,-0.00000041,0.00000006,-0.00000011,0.00000067,-0.00000054,0.000000
 99,-0.00000040,-0.00000082,-0.00000080,-0.00000088,-0.00000035,0.00000
 046,0.00000119,0.00000045,-0.00000122,0.00000062,-0.00000082,-0.000001
 44,-0.00000001,0.00000113,-0.00000089,0.00000060,0.00000002,0.00000277
 ,-0.00000015,0.00000104,0.00000109,-0.00000014,0.,0.00000118,-0.000000
 22,-0.00000017,0.00000224,0.00000058,0.,0.00000152,0.00000013,-0.00000
 051,0.00000065,-0.00000047,-0.00000020,-0.00000042,-0.00000025,0.00000
 031,0.00000068,0.00000060,-0.00000045,0.00000073,0.00000018,0.00000029
 ,-0.00000060,0.00000003,0.00000071,-0.00000026,0.00000002,0.,0.0000000
 5,-0.00000095,-0.00000129,-0.00000141,-0.00000036,0.00000036,-0.000001
 85,-0.00000018,-0.00000129,-0.00000194,0.00000037,-0.00000057,-0.00000
 222,0.00000011,0.00000015,0.00000126,0.00000052,0.00000044,0.00000048,
 0.00000007,-0.00000032,-0.00000053,-0.00000009,0.00000026,-0.00000135,
 -0.00000013,-0.00000007,-0.00000092,-0.00000042,0.00000045,-0.00000188
 ,-0.00000060,-0.00000031,-0.00000201,-0.00000049,0.00000023,-0.0000012
 4,-0.00000107,0.00000005,0.00000259,-0.00000004,-0.00000024,0.00000071
 ,-0.00000013,-0.00000071,0.00000107,-0.00000011,0.00000123,0.00000102,
 -0.00000023,0.00000045,0.00000078,-0.00000041,0.00000069,0.00000178,0.
 00000042,0.00000025,0.00000224,0.00000020,0.00000012,0.00000237,0.0000
 0021,0.00000051,0.00000194,0.00000369,0.00000042,-0.00000011,0.0000005
 5,0.00000115,0.00000082,-0.00000018,0.00000142,0.00000094,-0.00000002,
 0.00000025,0.00000189,0.00000016,0.00000045,0.00000139,0.00000027,-0.0
 0000022,0.00000138,0.00000027,-0.00000098,0.00000100,0.00000026,-0.000
 00050,0.00000081,-0.00000048,-0.00000027,0.00000109,0.00000023,-0.0000
 0024,-0.00000019,0.,-0.00000068,-0.00000004,-0.00000020,0.00000023,-0.
 00000037,0.00000011,0.00000031,0.00000077,-0.00000004,0.00000061,0.000
 00048,0.00000015,0.00000085,0.00000105,0.00000013,-0.00000052,0.000001
 20,0.00000019,-0.00000096,0.00000060,0.00000007,-0.00000070,0.00000098
 ,-0.00000005,-0.00000024,-0.00000081,-0.00000041,-0.00000048,-0.000001
 08,-0.00000006,-0.00000091,-0.00000084,-0.00000009,0.00000099,-0.00000
 062,-0.00000029,0.00000105,-0.00000114,-0.00000043,0.00000096,-0.00000
 085,0.00000004,0.00000039,0.00000007,-0.00000008,0.,0.00000020,0.00000
 005,0.00000066,0.00000051,-0.00000013,-0.00000064,-0.00000121,0.000000
 43,-0.00000088,-0.00000180,-0.00000032,0.,-0.00000226,-0.00000045,0.00
 000017,-0.00000206,-0.00000027,-0.00000137,-0.00000234,-0.00000041,-0.
 00000085,-0.00000251,-0.00000037,-0.00000053,-0.00000234,-0.00000055,-
 0.00000118,-0.00000188\\\@


 THEORY:  SUPPOSITION WHICH HAS SCIENTIFIC BASIS,
          BUT NOT EXPERIMENTALLY PROVEN.
 FACT:    A THEORY WHICH HAS BEEN PROVEN BY ENOUGH 
          MONEY TO PAY FOR THE EXPERIMENTS.

                          --  THE WIZARD OF ID
 Job cpu time:       4 days 15 hours  0 minutes 23.1 seconds.
 Elapsed time:       0 days  4 hours 38 minutes 18.0 seconds.
 File lengths (MBytes):  RWF=  12327 Int=      0 D2E=      0 Chk=    436 Scr=      1
 Normal termination of Gaussian 16 at Sun Jun 13 21:57:42 2021.
