 Entering Gaussian System, Link 0=g16
 Initial command:
 /common/software/install/migrated/gaussian/g16.c01.avx2/g16/l1.exe "/tmp/quach062/31556255/Gau-3612578.inp" -scrdir="/tmp/quach062/31556255/"
 Entering Link 1 = /common/software/install/migrated/gaussian/g16.c01.avx2/g16/l1.exe PID=   3612579.
  
 Copyright (c) 1988-2019, Gaussian, Inc.  All Rights Reserved.
  
 This is part of the Gaussian(R) 16 program.  It is based on
 the Gaussian(R) 09 system (copyright 2009, Gaussian, Inc.),
 the Gaussian(R) 03 system (copyright 2003, Gaussian, Inc.),
 the Gaussian(R) 98 system (copyright 1998, Gaussian, Inc.),
 the Gaussian(R) 94 system (copyright 1995, Gaussian, Inc.),
 the Gaussian 92(TM) system (copyright 1992, Gaussian, Inc.),
 the Gaussian 90(TM) system (copyright 1990, Gaussian, Inc.),
 the Gaussian 88(TM) system (copyright 1988, Gaussian, Inc.),
 the Gaussian 86(TM) system (copyright 1986, Carnegie Mellon
 University), and the Gaussian 82(TM) system (copyright 1983,
 Carnegie Mellon University). Gaussian is a federally registered
 trademark of Gaussian, Inc.
  
 This software contains proprietary and confidential information,
 including trade secrets, belonging to Gaussian, Inc.
  
 This software is provided under written license and may be
 used, copied, transmitted, or stored only in accord with that
 written license.
  
 The following legend is applicable only to US Government
 contracts under FAR:
  
                    RESTRICTED RIGHTS LEGEND
  
 Use, reproduction and disclosure by the US Government is
 subject to restrictions as set forth in subparagraphs (a)
 and (c) of the Commercial Computer Software - Restricted
 Rights clause in FAR 52.227-19.
  
 Gaussian, Inc.
 340 Quinnipiac St., Bldg. 40, Wallingford CT 06492
  
  
 ---------------------------------------------------------------
 Warning -- This program may not be used in any manner that
 competes with the business of Gaussian, Inc. or will provide
 assistance to any competitor of Gaussian, Inc.  The licensee
 of this program is prohibited from giving any competitor of
 Gaussian, Inc. access to this program.  By using this program,
 the user acknowledges that Gaussian, Inc. is engaged in the
 business of creating and licensing software in the field of
 computational chemistry and represents and warrants to the
 licensee that it is not a competitor of Gaussian, Inc. and that
 it will not use this program in any manner prohibited above.
 ---------------------------------------------------------------
  

 Cite this work as:
 Gaussian 16, Revision C.01,
 M. J. Frisch, G. W. Trucks, H. B. Schlegel, G. E. Scuseria, 
 M. A. Robb, J. R. Cheeseman, G. Scalmani, V. Barone, 
 G. A. Petersson, H. Nakatsuji, X. Li, M. Caricato, A. V. Marenich, 
 J. Bloino, B. G. Janesko, R. Gomperts, B. Mennucci, H. P. Hratchian, 
 J. V. Ortiz, A. F. Izmaylov, J. L. Sonnenberg, D. Williams-Young, 
 F. Ding, F. Lipparini, F. Egidi, J. Goings, B. Peng, A. Petrone, 
 T. Henderson, D. Ranasinghe, V. G. Zakrzewski, J. Gao, N. Rega, 
 G. Zheng, W. Liang, M. Hada, M. Ehara, K. Toyota, R. Fukuda, 
 J. Hasegawa, M. Ishida, T. Nakajima, Y. Honda, O. Kitao, H. Nakai, 
 T. Vreven, K. Throssell, J. A. Montgomery, Jr., J. E. Peralta, 
 F. Ogliaro, M. J. Bearpark, J. J. Heyd, E. N. Brothers, K. N. Kudin, 
 V. N. Staroverov, T. A. Keith, R. Kobayashi, J. Normand, 
 K. Raghavachari, A. P. Rendell, J. C. Burant, S. S. Iyengar, 
 J. Tomasi, M. Cossi, J. M. Millam, M. Klene, C. Adamo, R. Cammi, 
 J. W. Ochterski, R. L. Martin, K. Morokuma, O. Farkas, 
 J. B. Foresman, and D. J. Fox, Gaussian, Inc., Wallingford CT, 2019.
 
 ******************************************
 Gaussian 16:  ES64L-G16RevC.01  3-Jul-2019
                13-Feb-2025 
 ******************************************
 %chk=CoII_D_1_4.chk
 %lindaworkers=in-cn0088
 %nprocshared=128
 Will use up to  128 processors via shared memory.
 %mem=59800MB
 SetLPE:  input flags=" -workerwait 900 -opt "Tsnet.Node.lindarsharg: ssh " "
 SetLPE:    new flags=" -workerwait 900 -opt "Tsnet.Node.lindarsharg: ssh " -opt 'Tsnet.Node.lindarsharg: ssh'  -nodelist 'in-cn0088' -env GAUSS_MDEF=7838105600 -env GAUSS_EXEDIR="/common/software/install/migrated/gaussian/g16.c01.avx2/g16/bsd:/common/software/install/migrated/gaussian/g16.c01.avx2/g16/local:/common/software/install/migrated/gaussian/g16.c01.avx2/g16/extras:/common/software/install/migrated/gaussian/g16.c01.avx2/g16""
 Will use up to    1 processors via Linda.
 ----------------------------------------------------------------------
 # opt=(calcfc,modredundant) # freq # m06l/genecp/auto # nosymm integra
 l=grid=ultrafine # scf=(tight,intrep,xqc) # SCRF=(SMD,Solvent=n,n-DiMe
 thylFormamide)
 ----------------------------------------------------------------------
 1/10=4,18=120,19=15,26=6,38=1/1,3;
 2/9=110,12=2,15=1,17=6,18=5,40=1/2;
 3/5=7,11=2,16=1,17=8,25=1,30=1,70=32201,71=2,72=148,74=-53,75=-5,82=28,140=1/1,2,3;
 4//1;
 5/5=2,8=3,13=1,17=20,32=2,38=5,53=148/2,8;
 8/6=4,10=90,11=11/1;
 11/6=1,8=1,9=11,15=111,16=1,31=1/1,2,10;
 10/6=1,13=1,31=1/2;
 6/7=2,8=2,9=2,10=2,28=1/1;
 7/10=1,25=1,30=1/1,2,3,16;
 1/10=4,18=20,19=15,26=6/3(2);
 2/9=110,15=1/2;
 99//99;
 2/9=110,15=1/2;
 3/5=7,6=1,11=2,16=1,17=8,25=1,30=1,70=32205,71=1,72=148,74=-53,75=-5,82=7/1,2,3;
 4/5=5,16=3,69=1/1;
 5/5=2,8=3,13=1,17=20,32=2,38=5,53=148/2,8;
 7/30=1/1,2,3,16;
 1/18=20,19=15,26=6/3(-5);
 2/9=110,15=1/2;
 6/7=2,8=2,9=2,10=2,19=2,28=1/1;
 99/9=1/99;
 ------------------------
 Input: 2DMF/CoII_1_D,out
 ------------------------
 Symbolic Z-matrix:
 Charge = -1 Multiplicity = 1
 Co                   -0.21156  -0.39422  -3.8315 
 O                     1.01496  -1.86988  -3.84451 
 O                    -1.56765  -1.67424  -3.42089 
 N                     1.06755   0.82121  -4.48427 
 N                    -1.39619   1.07681  -3.77785 
 C                     3.07778  -3.02155  -3.79648 
 C                    -3.72226  -2.60267  -3.15649 
 C                     2.30058  -1.82582  -4.00139 
 C                    -2.84486  -1.47753  -3.30985 
 C                     3.00483  -0.6371   -4.38606 
 C                    -3.43453  -0.17027  -3.32231 
 C                     5.15652  -1.79284  -4.3567 
 C                    -5.66774  -1.08844  -2.93207 
 C                     2.39401  -4.32444  -3.36198 
 C                    -3.15994  -4.02747  -3.23211 
 C                     4.44967  -2.95628  -3.97673 
 C                    -5.07885  -2.36849  -2.96618 
 C                     4.40806  -0.65344  -4.55718 
 C                    -4.82072  -0.01303  -3.12372 
 C                     6.67426  -1.85476  -4.5206 
 C                    -7.16613  -0.86543  -2.7108 
 C                     2.33357   0.60055  -4.64707 
 C                    -2.66754   1.02346  -3.5311 
 C                     0.47868   2.10666  -4.86756 
 C                    -0.67229   2.36495  -3.88963 
 C                     1.32369  -4.74703  -4.37978 
 C                     1.73685  -4.12861  -1.98739 
 C                     3.38693  -5.48139  -3.23628 
 C                    -2.10849  -4.25821  -2.13521 
 C                    -4.24696  -5.08881  -3.05342 
 C                    -2.52303  -4.25165  -4.61283 
 C                     7.25936  -0.50589  -4.9336 
 C                     7.31763  -2.2755   -3.19222 
 C                     7.03527  -2.88904  -5.59541 
 C                    -7.76122  -0.13175  -3.91999 
 C                    -7.37686  -0.00542  -1.45753 
 C                    -7.92598  -2.178    -2.52456 
 C                    -0.02013   2.03974  -6.31176 
 C                    -1.4944    3.57904  -4.30279 
 C                    -0.80975   3.28382  -6.69476 
 C                    -1.98078   3.49838  -5.74432 
 H                     5.03028  -3.85904  -3.8157 
 H                    -5.72718  -3.22687  -2.83999 
 H                     4.88116   0.27831  -4.85615 
 H                    -5.21491   1.00208  -3.12844 
 H                     2.9546    1.42285  -5.0189 
 H                    -3.23297   1.95717  -3.47858 
 H                     1.22414   2.9074   -4.77195 
 H                    -0.23414   2.53974  -2.89817 
 H                     0.8606   -5.68955  -4.0659 
 H                     0.54294  -3.9928   -4.47142 
 H                     1.76511  -4.91074  -5.36916 
 H                     2.48549  -3.8661   -1.23171 
 H                     0.98524  -3.33932  -2.0195 
 H                     1.24825  -5.05435  -1.66156 
 H                     2.8508   -6.3856   -2.93192 
 H                     3.88952  -5.7021   -4.1836 
 H                     4.15725  -5.2904   -2.48247 
 H                    -1.69052  -5.26839  -2.22001 
 H                    -1.29266  -3.53852  -2.21013 
 H                    -2.56149  -4.17319  -1.14098 
 H                    -3.79553  -6.08361  -3.12069 
 H                    -4.73959  -5.01915  -2.07823 
 H                    -5.01959  -5.02867  -3.82659 
 H                    -3.27033  -4.14547  -5.40679 
 H                    -1.71727  -3.54129  -4.80175 
 H                    -2.11023  -5.26443  -4.68129 
 H                     8.34541  -0.58762  -5.03994 
 H                     6.86044  -0.16317  -5.8935 
 H                     7.05983   0.27201  -4.18991 
 H                     8.40664  -2.33692  -3.29296 
 H                     7.0954   -1.55462  -2.39867 
 H                     6.96214  -3.2558   -2.86104 
 H                     6.67463  -3.88865  -5.33508 
 H                     6.6031   -2.62044  -6.56483 
 H                     8.12167  -2.95323  -5.71966 
 H                    -8.83274   0.04527  -3.77643 
 H                    -7.28478   0.84032  -4.07801 
 H                    -7.63905  -0.71628  -4.83765 
 H                    -6.97236  -0.49684  -0.56666 
 H                    -6.89047   0.97009  -1.55025 
 H                    -8.444     0.17272  -1.28547 
 H                    -8.98874  -1.97104  -2.36569 
 H                    -7.84663  -2.82768  -3.40185 
 H                    -7.56841  -2.74049  -1.65631 
 H                    -0.65681   1.1493   -6.41278 
 H                     0.83669   1.88958  -6.97702 
 H                    -0.84106   4.45316  -4.19043 
 H                    -2.32192   3.74044  -3.6059 
 H                    -1.16071   3.19894  -7.72799 
 H                    -0.14923   4.16114  -6.66177 
 H                    -2.52599   4.41138  -6.00319 
 H                    -2.69432   2.67094  -5.8535 
 O                     0.53922   0.10661  -1.58765 
 N                    -0.29273  -1.48831  -0.16886 
 C                    -1.65877  -1.01173  -0.22009 
 C                    -0.01764  -2.61883   0.69091 
 C                     0.68511  -0.87298  -0.8543 
 H                    -1.97654  -0.67226   0.77162 
 H                    -2.32982  -1.81264  -0.54429 
 H                    -1.72015  -0.1847   -0.92617 
 H                    -0.32306  -2.39901   1.71894 
 H                     1.05076  -2.83682   0.68097 
 H                    -0.56322  -3.50554   0.35149 
 H                     1.67277  -1.34058  -0.68654 
 
 Add virtual bond connecting atoms O94        and Co1        Dist= 4.57D+00.
 Add virtual bond connecting atoms H100       and H61        Dist= 4.62D+00.
 Add virtual bond connecting atoms H105       and H54        Dist= 4.72D+00.
 The following ModRedundant input section has been read:
 B       1      94 S   2 0.2000                                                
 

 GradGradGradGradGradGradGradGradGradGradGradGradGradGradGradGradGradGrad
 Berny optimization.
 Initialization pass.
                           ----------------------------
                           !    Initial Parameters    !
                           ! (Angstroms and Degrees)  !
 --------------------------                            --------------------------
 ! Name  Definition              Value          Derivative Info.                !
 --------------------------------------------------------------------------------
 ! R1    R(1,2)                  1.9189         calculate D2E/DX2 analytically  !
 ! R2    R(1,3)                  1.9095         calculate D2E/DX2 analytically  !
 ! R3    R(1,4)                  1.8814         calculate D2E/DX2 analytically  !
 ! R4    R(1,5)                  1.8895         calculate D2E/DX2 analytically  !
 ! R5    R(1,94)                 2.4185         Scan                            !
 ! R6    R(2,8)                  1.2959         calculate D2E/DX2 analytically  !
 ! R7    R(3,9)                  1.297          calculate D2E/DX2 analytically  !
 ! R8    R(4,22)                 1.2954         calculate D2E/DX2 analytically  !
 ! R9    R(4,24)                 1.4649         calculate D2E/DX2 analytically  !
 ! R10   R(5,23)                 1.2962         calculate D2E/DX2 analytically  !
 ! R11   R(5,25)                 1.4818         calculate D2E/DX2 analytically  !
 ! R12   R(6,8)                  1.4408         calculate D2E/DX2 analytically  !
 ! R13   R(6,14)                 1.5342         calculate D2E/DX2 analytically  !
 ! R14   R(6,16)                 1.3852         calculate D2E/DX2 analytically  !
 ! R15   R(7,9)                  1.435          calculate D2E/DX2 analytically  !
 ! R16   R(7,15)                 1.5336         calculate D2E/DX2 analytically  !
 ! R17   R(7,17)                 1.3897         calculate D2E/DX2 analytically  !
 ! R18   R(8,10)                 1.4342         calculate D2E/DX2 analytically  !
 ! R19   R(9,11)                 1.4341         calculate D2E/DX2 analytically  !
 ! R20   R(10,18)                1.4137         calculate D2E/DX2 analytically  !
 ! R21   R(10,22)                1.432          calculate D2E/DX2 analytically  !
 ! R22   R(11,19)                1.4091         calculate D2E/DX2 analytically  !
 ! R23   R(11,23)                1.4342         calculate D2E/DX2 analytically  !
 ! R24   R(12,16)                1.4134         calculate D2E/DX2 analytically  !
 ! R25   R(12,18)                1.3779         calculate D2E/DX2 analytically  !
 ! R26   R(12,20)                1.5278         calculate D2E/DX2 analytically  !
 ! R27   R(13,17)                1.4094         calculate D2E/DX2 analytically  !
 ! R28   R(13,19)                1.3823         calculate D2E/DX2 analytically  !
 ! R29   R(13,21)                1.531          calculate D2E/DX2 analytically  !
 ! R30   R(14,26)                1.5362         calculate D2E/DX2 analytically  !
 ! R31   R(14,27)                1.5361         calculate D2E/DX2 analytically  !
 ! R32   R(14,28)                1.5298         calculate D2E/DX2 analytically  !
 ! R33   R(15,29)                1.5369         calculate D2E/DX2 analytically  !
 ! R34   R(15,30)                1.5297         calculate D2E/DX2 analytically  !
 ! R35   R(15,31)                1.537          calculate D2E/DX2 analytically  !
 ! R36   R(16,42)                1.0854         calculate D2E/DX2 analytically  !
 ! R37   R(17,43)                1.0831         calculate D2E/DX2 analytically  !
 ! R38   R(18,44)                1.0869         calculate D2E/DX2 analytically  !
 ! R39   R(19,45)                1.089          calculate D2E/DX2 analytically  !
 ! R40   R(20,32)                1.5272         calculate D2E/DX2 analytically  !
 ! R41   R(20,33)                1.5348         calculate D2E/DX2 analytically  !
 ! R42   R(20,34)                1.5347         calculate D2E/DX2 analytically  !
 ! R43   R(21,35)                1.5345         calculate D2E/DX2 analytically  !
 ! R44   R(21,36)                1.5345         calculate D2E/DX2 analytically  !
 ! R45   R(21,37)                1.528          calculate D2E/DX2 analytically  !
 ! R46   R(22,46)                1.0955         calculate D2E/DX2 analytically  !
 ! R47   R(23,47)                1.0928         calculate D2E/DX2 analytically  !
 ! R48   R(24,25)                1.5323         calculate D2E/DX2 analytically  !
 ! R49   R(24,38)                1.5294         calculate D2E/DX2 analytically  !
 ! R50   R(24,48)                1.0982         calculate D2E/DX2 analytically  !
 ! R51   R(25,39)                1.5234         calculate D2E/DX2 analytically  !
 ! R52   R(25,49)                1.098          calculate D2E/DX2 analytically  !
 ! R53   R(26,50)                1.096          calculate D2E/DX2 analytically  !
 ! R54   R(26,51)                1.0894         calculate D2E/DX2 analytically  !
 ! R55   R(26,52)                1.0957         calculate D2E/DX2 analytically  !
 ! R56   R(27,53)                1.0956         calculate D2E/DX2 analytically  !
 ! R57   R(27,54)                1.0904         calculate D2E/DX2 analytically  !
 ! R58   R(27,55)                1.0963         calculate D2E/DX2 analytically  !
 ! R59   R(28,56)                1.0944         calculate D2E/DX2 analytically  !
 ! R60   R(28,57)                1.0949         calculate D2E/DX2 analytically  !
 ! R61   R(28,58)                1.0946         calculate D2E/DX2 analytically  !
 ! R62   R(29,59)                1.0965         calculate D2E/DX2 analytically  !
 ! R63   R(29,60)                1.0905         calculate D2E/DX2 analytically  !
 ! R64   R(29,61)                1.0959         calculate D2E/DX2 analytically  !
 ! R65   R(30,62)                1.0945         calculate D2E/DX2 analytically  !
 ! R66   R(30,63)                1.0948         calculate D2E/DX2 analytically  !
 ! R67   R(30,64)                1.0947         calculate D2E/DX2 analytically  !
 ! R68   R(31,65)                1.0955         calculate D2E/DX2 analytically  !
 ! R69   R(31,66)                1.0907         calculate D2E/DX2 analytically  !
 ! R70   R(31,67)                1.0958         calculate D2E/DX2 analytically  !
 ! R71   R(32,68)                1.0943         calculate D2E/DX2 analytically  !
 ! R72   R(32,69)                1.0945         calculate D2E/DX2 analytically  !
 ! R73   R(32,70)                1.0945         calculate D2E/DX2 analytically  !
 ! R74   R(33,71)                1.0954         calculate D2E/DX2 analytically  !
 ! R75   R(33,72)                1.0949         calculate D2E/DX2 analytically  !
 ! R76   R(33,73)                1.0941         calculate D2E/DX2 analytically  !
 ! R77   R(34,74)                1.0941         calculate D2E/DX2 analytically  !
 ! R78   R(34,75)                1.0948         calculate D2E/DX2 analytically  !
 ! R79   R(34,76)                1.0954         calculate D2E/DX2 analytically  !
 ! R80   R(35,77)                1.0955         calculate D2E/DX2 analytically  !
 ! R81   R(35,78)                1.094          calculate D2E/DX2 analytically  !
 ! R82   R(35,79)                1.0948         calculate D2E/DX2 analytically  !
 ! R83   R(36,80)                1.0949         calculate D2E/DX2 analytically  !
 ! R84   R(36,81)                1.094          calculate D2E/DX2 analytically  !
 ! R85   R(36,82)                1.0955         calculate D2E/DX2 analytically  !
 ! R86   R(37,83)                1.0943         calculate D2E/DX2 analytically  !
 ! R87   R(37,84)                1.0945         calculate D2E/DX2 analytically  !
 ! R88   R(37,85)                1.0946         calculate D2E/DX2 analytically  !
 ! R89   R(38,40)                1.5225         calculate D2E/DX2 analytically  !
 ! R90   R(38,86)                1.0993         calculate D2E/DX2 analytically  !
 ! R91   R(38,87)                1.0951         calculate D2E/DX2 analytically  !
 ! R92   R(39,41)                1.5235         calculate D2E/DX2 analytically  !
 ! R93   R(39,88)                1.0971         calculate D2E/DX2 analytically  !
 ! R94   R(39,89)                1.0939         calculate D2E/DX2 analytically  !
 ! R95   R(40,41)                1.5234         calculate D2E/DX2 analytically  !
 ! R96   R(40,90)                1.0945         calculate D2E/DX2 analytically  !
 ! R97   R(40,91)                1.0987         calculate D2E/DX2 analytically  !
 ! R98   R(41,92)                1.0945         calculate D2E/DX2 analytically  !
 ! R99   R(41,93)                1.0981         calculate D2E/DX2 analytically  !
 ! R100  R(54,105)               2.4989         calculate D2E/DX2 analytically  !
 ! R101  R(61,100)               2.4458         calculate D2E/DX2 analytically  !
 ! R102  R(94,98)                1.2323         calculate D2E/DX2 analytically  !
 ! R103  R(95,96)                1.4477         calculate D2E/DX2 analytically  !
 ! R104  R(95,97)                1.4467         calculate D2E/DX2 analytically  !
 ! R105  R(95,98)                1.3434         calculate D2E/DX2 analytically  !
 ! R106  R(96,99)                1.0953         calculate D2E/DX2 analytically  !
 ! R107  R(96,100)               1.094          calculate D2E/DX2 analytically  !
 ! R108  R(96,101)               1.0892         calculate D2E/DX2 analytically  !
 ! R109  R(97,102)               1.0947         calculate D2E/DX2 analytically  !
 ! R110  R(97,103)               1.0905         calculate D2E/DX2 analytically  !
 ! R111  R(97,104)               1.095          calculate D2E/DX2 analytically  !
 ! R112  R(98,105)               1.1056         calculate D2E/DX2 analytically  !
 ! A1    A(2,1,3)               86.5535         calculate D2E/DX2 analytically  !
 ! A2    A(2,1,4)               93.4337         calculate D2E/DX2 analytically  !
 ! A3    A(2,1,94)              88.1157         calculate D2E/DX2 analytically  !
 ! A4    A(3,1,5)               94.0442         calculate D2E/DX2 analytically  !
 ! A5    A(3,1,94)              99.1937         calculate D2E/DX2 analytically  !
 ! A6    A(4,1,5)               86.1669         calculate D2E/DX2 analytically  !
 ! A7    A(4,1,94)              88.6861         calculate D2E/DX2 analytically  !
 ! A8    A(5,1,94)              90.4049         calculate D2E/DX2 analytically  !
 ! A9    A(1,2,8)              127.5017         calculate D2E/DX2 analytically  !
 ! A10   A(1,3,9)              128.0308         calculate D2E/DX2 analytically  !
 ! A11   A(1,4,22)             126.7293         calculate D2E/DX2 analytically  !
 ! A12   A(1,4,24)             112.6046         calculate D2E/DX2 analytically  !
 ! A13   A(22,4,24)            120.6274         calculate D2E/DX2 analytically  !
 ! A14   A(1,5,23)             126.0376         calculate D2E/DX2 analytically  !
 ! A15   A(1,5,25)             111.6139         calculate D2E/DX2 analytically  !
 ! A16   A(23,5,25)            121.958          calculate D2E/DX2 analytically  !
 ! A17   A(8,6,14)             120.3078         calculate D2E/DX2 analytically  !
 ! A18   A(8,6,16)             118.466          calculate D2E/DX2 analytically  !
 ! A19   A(14,6,16)            121.2154         calculate D2E/DX2 analytically  !
 ! A20   A(9,7,15)             119.9318         calculate D2E/DX2 analytically  !
 ! A21   A(9,7,17)             118.6429         calculate D2E/DX2 analytically  !
 ! A22   A(15,7,17)            121.414          calculate D2E/DX2 analytically  !
 ! A23   A(2,8,6)              119.3223         calculate D2E/DX2 analytically  !
 ! A24   A(2,8,10)             123.2151         calculate D2E/DX2 analytically  !
 ! A25   A(6,8,10)             117.46           calculate D2E/DX2 analytically  !
 ! A26   A(3,9,7)              119.4928         calculate D2E/DX2 analytically  !
 ! A27   A(3,9,11)             122.8458         calculate D2E/DX2 analytically  !
 ! A28   A(7,9,11)             117.6596         calculate D2E/DX2 analytically  !
 ! A29   A(8,10,18)            120.6821         calculate D2E/DX2 analytically  !
 ! A30   A(8,10,22)            122.3485         calculate D2E/DX2 analytically  !
 ! A31   A(18,10,22)           116.9504         calculate D2E/DX2 analytically  !
 ! A32   A(9,11,19)            120.3282         calculate D2E/DX2 analytically  !
 ! A33   A(9,11,23)            122.689          calculate D2E/DX2 analytically  !
 ! A34   A(19,11,23)           116.9828         calculate D2E/DX2 analytically  !
 ! A35   A(16,12,18)           116.6246         calculate D2E/DX2 analytically  !
 ! A36   A(16,12,20)           119.4918         calculate D2E/DX2 analytically  !
 ! A37   A(18,12,20)           123.8835         calculate D2E/DX2 analytically  !
 ! A38   A(17,13,19)           116.5637         calculate D2E/DX2 analytically  !
 ! A39   A(17,13,21)           123.0061         calculate D2E/DX2 analytically  !
 ! A40   A(19,13,21)           120.4274         calculate D2E/DX2 analytically  !
 ! A41   A(6,14,26)            110.8845         calculate D2E/DX2 analytically  !
 ! A42   A(6,14,27)            109.6224         calculate D2E/DX2 analytically  !
 ! A43   A(6,14,28)            112.101          calculate D2E/DX2 analytically  !
 ! A44   A(26,14,27)           109.2606         calculate D2E/DX2 analytically  !
 ! A45   A(26,14,28)           107.374          calculate D2E/DX2 analytically  !
 ! A46   A(27,14,28)           107.4909         calculate D2E/DX2 analytically  !
 ! A47   A(7,15,29)            110.8025         calculate D2E/DX2 analytically  !
 ! A48   A(7,15,30)            112.227          calculate D2E/DX2 analytically  !
 ! A49   A(7,15,31)            109.375          calculate D2E/DX2 analytically  !
 ! A50   A(29,15,30)           107.3746         calculate D2E/DX2 analytically  !
 ! A51   A(29,15,31)           109.6184         calculate D2E/DX2 analytically  !
 ! A52   A(30,15,31)           107.35           calculate D2E/DX2 analytically  !
 ! A53   A(6,16,12)            124.6857         calculate D2E/DX2 analytically  !
 ! A54   A(6,16,42)            118.1191         calculate D2E/DX2 analytically  !
 ! A55   A(12,16,42)           117.1952         calculate D2E/DX2 analytically  !
 ! A56   A(7,17,13)            124.3473         calculate D2E/DX2 analytically  !
 ! A57   A(7,17,43)            117.8216         calculate D2E/DX2 analytically  !
 ! A58   A(13,17,43)           117.8305         calculate D2E/DX2 analytically  !
 ! A59   A(10,18,12)           122.0799         calculate D2E/DX2 analytically  !
 ! A60   A(10,18,44)           117.0927         calculate D2E/DX2 analytically  !
 ! A61   A(12,18,44)           120.8274         calculate D2E/DX2 analytically  !
 ! A62   A(11,19,13)           122.3795         calculate D2E/DX2 analytically  !
 ! A63   A(11,19,45)           117.3544         calculate D2E/DX2 analytically  !
 ! A64   A(13,19,45)           120.2658         calculate D2E/DX2 analytically  !
 ! A65   A(12,20,32)           111.9507         calculate D2E/DX2 analytically  !
 ! A66   A(12,20,33)           109.5536         calculate D2E/DX2 analytically  !
 ! A67   A(12,20,34)           109.6408         calculate D2E/DX2 analytically  !
 ! A68   A(32,20,33)           108.396          calculate D2E/DX2 analytically  !
 ! A69   A(32,20,34)           108.4044         calculate D2E/DX2 analytically  !
 ! A70   A(33,20,34)           108.8325         calculate D2E/DX2 analytically  !
 ! A71   A(13,21,35)           109.5923         calculate D2E/DX2 analytically  !
 ! A72   A(13,21,36)           109.5171         calculate D2E/DX2 analytically  !
 ! A73   A(13,21,37)           112.2827         calculate D2E/DX2 analytically  !
 ! A74   A(35,21,36)           108.8066         calculate D2E/DX2 analytically  !
 ! A75   A(35,21,37)           108.295          calculate D2E/DX2 analytically  !
 ! A76   A(36,21,37)           108.2751         calculate D2E/DX2 analytically  !
 ! A77   A(4,22,10)            125.6246         calculate D2E/DX2 analytically  !
 ! A78   A(4,22,46)            117.9588         calculate D2E/DX2 analytically  !
 ! A79   A(10,22,46)           116.4163         calculate D2E/DX2 analytically  !
 ! A80   A(5,23,11)            125.9106         calculate D2E/DX2 analytically  !
 ! A81   A(5,23,47)            118.7815         calculate D2E/DX2 analytically  !
 ! A82   A(11,23,47)           115.3064         calculate D2E/DX2 analytically  !
 ! A83   A(4,24,25)            106.4316         calculate D2E/DX2 analytically  !
 ! A84   A(4,24,38)            109.8631         calculate D2E/DX2 analytically  !
 ! A85   A(4,24,48)            110.1308         calculate D2E/DX2 analytically  !
 ! A86   A(25,24,38)           111.4116         calculate D2E/DX2 analytically  !
 ! A87   A(25,24,48)           109.3555         calculate D2E/DX2 analytically  !
 ! A88   A(38,24,48)           109.6034         calculate D2E/DX2 analytically  !
 ! A89   A(5,25,24)            105.5791         calculate D2E/DX2 analytically  !
 ! A90   A(5,25,39)            116.7203         calculate D2E/DX2 analytically  !
 ! A91   A(5,25,49)            105.3802         calculate D2E/DX2 analytically  !
 ! A92   A(24,25,39)           111.5075         calculate D2E/DX2 analytically  !
 ! A93   A(24,25,49)           107.6615         calculate D2E/DX2 analytically  !
 ! A94   A(39,25,49)           109.4752         calculate D2E/DX2 analytically  !
 ! A95   A(14,26,50)           109.949          calculate D2E/DX2 analytically  !
 ! A96   A(14,26,51)           111.3823         calculate D2E/DX2 analytically  !
 ! A97   A(14,26,52)           111.0178         calculate D2E/DX2 analytically  !
 ! A98   A(50,26,51)           108.4596         calculate D2E/DX2 analytically  !
 ! A99   A(50,26,52)           107.4777         calculate D2E/DX2 analytically  !
 ! A100  A(51,26,52)           108.4336         calculate D2E/DX2 analytically  !
 ! A101  A(14,27,53)           110.819          calculate D2E/DX2 analytically  !
 ! A102  A(14,27,54)           111.1505         calculate D2E/DX2 analytically  !
 ! A103  A(14,27,55)           110.4237         calculate D2E/DX2 analytically  !
 ! A104  A(53,27,54)           108.5344         calculate D2E/DX2 analytically  !
 ! A105  A(53,27,55)           107.569          calculate D2E/DX2 analytically  !
 ! A106  A(54,27,55)           108.2277         calculate D2E/DX2 analytically  !
 ! A107  A(14,28,56)           109.2532         calculate D2E/DX2 analytically  !
 ! A108  A(14,28,57)           112.2908         calculate D2E/DX2 analytically  !
 ! A109  A(14,28,58)           112.4214         calculate D2E/DX2 analytically  !
 ! A110  A(56,28,57)           107.395          calculate D2E/DX2 analytically  !
 ! A111  A(56,28,58)           107.3016         calculate D2E/DX2 analytically  !
 ! A112  A(57,28,58)           107.9384         calculate D2E/DX2 analytically  !
 ! A113  A(15,29,59)           110.115          calculate D2E/DX2 analytically  !
 ! A114  A(15,29,60)           111.3283         calculate D2E/DX2 analytically  !
 ! A115  A(15,29,61)           110.6752         calculate D2E/DX2 analytically  !
 ! A116  A(59,29,60)           108.5135         calculate D2E/DX2 analytically  !
 ! A117  A(59,29,61)           107.4098         calculate D2E/DX2 analytically  !
 ! A118  A(60,29,61)           108.6863         calculate D2E/DX2 analytically  !
 ! A119  A(15,30,62)           109.2899         calculate D2E/DX2 analytically  !
 ! A120  A(15,30,63)           112.3135         calculate D2E/DX2 analytically  !
 ! A121  A(15,30,64)           112.3908         calculate D2E/DX2 analytically  !
 ! A122  A(62,30,63)           107.348          calculate D2E/DX2 analytically  !
 ! A123  A(62,30,64)           107.3149         calculate D2E/DX2 analytically  !
 ! A124  A(63,30,64)           107.9414         calculate D2E/DX2 analytically  !
 ! A125  A(15,31,65)           110.7476         calculate D2E/DX2 analytically  !
 ! A126  A(15,31,66)           111.515          calculate D2E/DX2 analytically  !
 ! A127  A(15,31,67)           110.3062         calculate D2E/DX2 analytically  !
 ! A128  A(65,31,66)           108.3789         calculate D2E/DX2 analytically  !
 ! A129  A(65,31,67)           107.534          calculate D2E/DX2 analytically  !
 ! A130  A(66,31,67)           108.23           calculate D2E/DX2 analytically  !
 ! A131  A(20,32,68)           109.9103         calculate D2E/DX2 analytically  !
 ! A132  A(20,32,69)           111.9677         calculate D2E/DX2 analytically  !
 ! A133  A(20,32,70)           111.9709         calculate D2E/DX2 analytically  !
 ! A134  A(68,32,69)           107.4503         calculate D2E/DX2 analytically  !
 ! A135  A(68,32,70)           107.4599         calculate D2E/DX2 analytically  !
 ! A136  A(69,32,70)           107.8719         calculate D2E/DX2 analytically  !
 ! A137  A(20,33,71)           110.6417         calculate D2E/DX2 analytically  !
 ! A138  A(20,33,72)           111.2065         calculate D2E/DX2 analytically  !
 ! A139  A(20,33,73)           111.8024         calculate D2E/DX2 analytically  !
 ! A140  A(71,33,72)           107.7806         calculate D2E/DX2 analytically  !
 ! A141  A(71,33,73)           107.4954         calculate D2E/DX2 analytically  !
 ! A142  A(72,33,73)           107.7336         calculate D2E/DX2 analytically  !
 ! A143  A(20,34,74)           111.8114         calculate D2E/DX2 analytically  !
 ! A144  A(20,34,75)           111.2179         calculate D2E/DX2 analytically  !
 ! A145  A(20,34,76)           110.6246         calculate D2E/DX2 analytically  !
 ! A146  A(74,34,75)           107.741          calculate D2E/DX2 analytically  !
 ! A147  A(74,34,76)           107.4804         calculate D2E/DX2 analytically  !
 ! A148  A(75,34,76)           107.7845         calculate D2E/DX2 analytically  !
 ! A149  A(21,35,77)           110.6908         calculate D2E/DX2 analytically  !
 ! A150  A(21,35,78)           111.701          calculate D2E/DX2 analytically  !
 ! A151  A(21,35,79)           111.2194         calculate D2E/DX2 analytically  !
 ! A152  A(77,35,78)           107.5364         calculate D2E/DX2 analytically  !
 ! A153  A(77,35,79)           107.7736         calculate D2E/DX2 analytically  !
 ! A154  A(78,35,79)           107.7417         calculate D2E/DX2 analytically  !
 ! A155  A(21,36,80)           111.2392         calculate D2E/DX2 analytically  !
 ! A156  A(21,36,81)           111.683          calculate D2E/DX2 analytically  !
 ! A157  A(21,36,82)           110.6823         calculate D2E/DX2 analytically  !
 ! A158  A(80,36,81)           107.7539         calculate D2E/DX2 analytically  !
 ! A159  A(80,36,82)           107.7628         calculate D2E/DX2 analytically  !
 ! A160  A(81,36,82)           107.542          calculate D2E/DX2 analytically  !
 ! A161  A(21,37,83)           109.7653         calculate D2E/DX2 analytically  !
 ! A162  A(21,37,84)           112.0938         calculate D2E/DX2 analytically  !
 ! A163  A(21,37,85)           112.065          calculate D2E/DX2 analytically  !
 ! A164  A(83,37,84)           107.3986         calculate D2E/DX2 analytically  !
 ! A165  A(83,37,85)           107.4149         calculate D2E/DX2 analytically  !
 ! A166  A(84,37,85)           107.8833         calculate D2E/DX2 analytically  !
 ! A167  A(24,38,40)           111.7743         calculate D2E/DX2 analytically  !
 ! A168  A(24,38,86)           108.1268         calculate D2E/DX2 analytically  !
 ! A169  A(24,38,87)           108.9333         calculate D2E/DX2 analytically  !
 ! A170  A(40,38,86)           109.7789         calculate D2E/DX2 analytically  !
 ! A171  A(40,38,87)           111.4087         calculate D2E/DX2 analytically  !
 ! A172  A(86,38,87)           106.6338         calculate D2E/DX2 analytically  !
 ! A173  A(25,39,41)           112.7506         calculate D2E/DX2 analytically  !
 ! A174  A(25,39,88)           106.61           calculate D2E/DX2 analytically  !
 ! A175  A(25,39,89)           110.6753         calculate D2E/DX2 analytically  !
 ! A176  A(41,39,88)           109.2212         calculate D2E/DX2 analytically  !
 ! A177  A(41,39,89)           111.661          calculate D2E/DX2 analytically  !
 ! A178  A(88,39,89)           105.5285         calculate D2E/DX2 analytically  !
 ! A179  A(38,40,41)           110.9054         calculate D2E/DX2 analytically  !
 ! A180  A(38,40,90)           109.9018         calculate D2E/DX2 analytically  !
 ! A181  A(38,40,91)           109.46           calculate D2E/DX2 analytically  !
 ! A182  A(41,40,90)           110.6962         calculate D2E/DX2 analytically  !
 ! A183  A(41,40,91)           109.3263         calculate D2E/DX2 analytically  !
 ! A184  A(90,40,91)           106.4423         calculate D2E/DX2 analytically  !
 ! A185  A(39,41,40)           110.6328         calculate D2E/DX2 analytically  !
 ! A186  A(39,41,92)           109.7958         calculate D2E/DX2 analytically  !
 ! A187  A(39,41,93)           109.9641         calculate D2E/DX2 analytically  !
 ! A188  A(40,41,92)           110.6626         calculate D2E/DX2 analytically  !
 ! A189  A(40,41,93)           109.3509         calculate D2E/DX2 analytically  !
 ! A190  A(92,41,93)           106.3427         calculate D2E/DX2 analytically  !
 ! A191  A(27,54,105)          111.9394         calculate D2E/DX2 analytically  !
 ! A192  A(29,61,100)          104.8961         calculate D2E/DX2 analytically  !
 ! A193  A(1,94,98)            115.1029         calculate D2E/DX2 analytically  !
 ! A194  A(96,95,97)           117.2395         calculate D2E/DX2 analytically  !
 ! A195  A(96,95,98)           121.1981         calculate D2E/DX2 analytically  !
 ! A196  A(97,95,98)           121.5178         calculate D2E/DX2 analytically  !
 ! A197  A(95,96,99)           110.1056         calculate D2E/DX2 analytically  !
 ! A198  A(95,96,100)          110.3814         calculate D2E/DX2 analytically  !
 ! A199  A(95,96,101)          109.0315         calculate D2E/DX2 analytically  !
 ! A200  A(99,96,100)          108.4966         calculate D2E/DX2 analytically  !
 ! A201  A(99,96,101)          109.5887         calculate D2E/DX2 analytically  !
 ! A202  A(100,96,101)         109.2208         calculate D2E/DX2 analytically  !
 ! A203  A(95,97,102)          110.372          calculate D2E/DX2 analytically  !
 ! A204  A(95,97,103)          109.7003         calculate D2E/DX2 analytically  !
 ! A205  A(95,97,104)          110.7212         calculate D2E/DX2 analytically  !
 ! A206  A(102,97,103)         108.787          calculate D2E/DX2 analytically  !
 ! A207  A(102,97,104)         108.3408         calculate D2E/DX2 analytically  !
 ! A208  A(103,97,104)         108.8725         calculate D2E/DX2 analytically  !
 ! A209  A(94,98,95)           125.5607         calculate D2E/DX2 analytically  !
 ! A210  A(94,98,105)          122.1588         calculate D2E/DX2 analytically  !
 ! A211  A(95,98,105)          112.2788         calculate D2E/DX2 analytically  !
 ! A212  A(61,100,96)          146.8211         calculate D2E/DX2 analytically  !
 ! A213  A(54,105,98)           90.6626         calculate D2E/DX2 analytically  !
 ! A214  L(2,1,5,3,-1)         180.5977         calculate D2E/DX2 analytically  !
 ! A215  L(3,1,4,2,-1)         179.9872         calculate D2E/DX2 analytically  !
 ! A216  L(2,1,5,3,-2)         178.5957         calculate D2E/DX2 analytically  !
 ! A217  L(3,1,4,2,-2)         172.0995         calculate D2E/DX2 analytically  !
 ! D1    D(3,1,2,8)           -176.0111         calculate D2E/DX2 analytically  !
 ! D2    D(4,1,2,8)             11.8894         calculate D2E/DX2 analytically  !
 ! D3    D(94,1,2,8)           -76.6805         calculate D2E/DX2 analytically  !
 ! D4    D(2,1,3,9)           -175.3485         calculate D2E/DX2 analytically  !
 ! D5    D(5,1,3,9)              6.0558         calculate D2E/DX2 analytically  !
 ! D6    D(94,1,3,9)            97.1228         calculate D2E/DX2 analytically  !
 ! D7    D(2,1,4,22)            -7.9358         calculate D2E/DX2 analytically  !
 ! D8    D(2,1,4,24)           169.7929         calculate D2E/DX2 analytically  !
 ! D9    D(5,1,4,22)           170.5911         calculate D2E/DX2 analytically  !
 ! D10   D(5,1,4,24)           -11.6802         calculate D2E/DX2 analytically  !
 ! D11   D(94,1,4,22)           80.0971         calculate D2E/DX2 analytically  !
 ! D12   D(94,1,4,24)         -102.1742         calculate D2E/DX2 analytically  !
 ! D13   D(3,1,5,23)            -0.1653         calculate D2E/DX2 analytically  !
 ! D14   D(3,1,5,25)           172.7306         calculate D2E/DX2 analytically  !
 ! D15   D(4,1,5,23)           171.9327         calculate D2E/DX2 analytically  !
 ! D16   D(4,1,5,25)           -15.1715         calculate D2E/DX2 analytically  !
 ! D17   D(94,1,5,23)          -99.4113         calculate D2E/DX2 analytically  !
 ! D18   D(94,1,5,25)           73.4845         calculate D2E/DX2 analytically  !
 ! D19   D(2,1,94,98)          -42.3402         calculate D2E/DX2 analytically  !
 ! D20   D(3,1,94,98)           43.8607         calculate D2E/DX2 analytically  !
 ! D21   D(4,1,94,98)         -135.82           calculate D2E/DX2 analytically  !
 ! D22   D(5,1,94,98)          138.0235         calculate D2E/DX2 analytically  !
 ! D23   D(1,2,8,6)            171.4108         calculate D2E/DX2 analytically  !
 ! D24   D(1,2,8,10)            -9.1954         calculate D2E/DX2 analytically  !
 ! D25   D(1,3,9,7)            172.3446         calculate D2E/DX2 analytically  !
 ! D26   D(1,3,9,11)            -8.159          calculate D2E/DX2 analytically  !
 ! D27   D(1,4,22,10)            1.5187         calculate D2E/DX2 analytically  !
 ! D28   D(1,4,22,46)         -178.6792         calculate D2E/DX2 analytically  !
 ! D29   D(24,4,22,10)        -176.0445         calculate D2E/DX2 analytically  !
 ! D30   D(24,4,22,46)           3.7576         calculate D2E/DX2 analytically  !
 ! D31   D(1,4,24,25)           34.2435         calculate D2E/DX2 analytically  !
 ! D32   D(1,4,24,38)          -86.5022         calculate D2E/DX2 analytically  !
 ! D33   D(1,4,24,48)          152.6762         calculate D2E/DX2 analytically  !
 ! D34   D(22,4,24,25)        -147.8719         calculate D2E/DX2 analytically  !
 ! D35   D(22,4,24,38)          91.3824         calculate D2E/DX2 analytically  !
 ! D36   D(22,4,24,48)         -29.4392         calculate D2E/DX2 analytically  !
 ! D37   D(1,5,23,11)           -3.6003         calculate D2E/DX2 analytically  !
 ! D38   D(1,5,23,47)          176.8592         calculate D2E/DX2 analytically  !
 ! D39   D(25,5,23,11)        -175.8117         calculate D2E/DX2 analytically  !
 ! D40   D(25,5,23,47)           4.6478         calculate D2E/DX2 analytically  !
 ! D41   D(1,5,25,24)           36.5698         calculate D2E/DX2 analytically  !
 ! D42   D(1,5,25,39)          161.0735         calculate D2E/DX2 analytically  !
 ! D43   D(1,5,25,49)          -77.2184         calculate D2E/DX2 analytically  !
 ! D44   D(23,5,25,24)        -150.1995         calculate D2E/DX2 analytically  !
 ! D45   D(23,5,25,39)         -25.6957         calculate D2E/DX2 analytically  !
 ! D46   D(23,5,25,49)          96.0124         calculate D2E/DX2 analytically  !
 ! D47   D(14,6,8,2)            -1.5581         calculate D2E/DX2 analytically  !
 ! D48   D(14,6,8,10)          179.0134         calculate D2E/DX2 analytically  !
 ! D49   D(16,6,8,2)           179.6202         calculate D2E/DX2 analytically  !
 ! D50   D(16,6,8,10)            0.1917         calculate D2E/DX2 analytically  !
 ! D51   D(8,6,14,26)           58.4828         calculate D2E/DX2 analytically  !
 ! D52   D(8,6,14,27)          -62.2385         calculate D2E/DX2 analytically  !
 ! D53   D(8,6,14,28)          178.4757         calculate D2E/DX2 analytically  !
 ! D54   D(16,6,14,26)        -122.7284         calculate D2E/DX2 analytically  !
 ! D55   D(16,6,14,27)         116.5503         calculate D2E/DX2 analytically  !
 ! D56   D(16,6,14,28)          -2.7355         calculate D2E/DX2 analytically  !
 ! D57   D(8,6,16,12)           -0.2713         calculate D2E/DX2 analytically  !
 ! D58   D(8,6,16,42)          179.6776         calculate D2E/DX2 analytically  !
 ! D59   D(14,6,16,12)        -179.0819         calculate D2E/DX2 analytically  !
 ! D60   D(14,6,16,42)           0.8671         calculate D2E/DX2 analytically  !
 ! D61   D(15,7,9,3)            -4.655          calculate D2E/DX2 analytically  !
 ! D62   D(15,7,9,11)          175.8227         calculate D2E/DX2 analytically  !
 ! D63   D(17,7,9,3)           176.5482         calculate D2E/DX2 analytically  !
 ! D64   D(17,7,9,11)           -2.9741         calculate D2E/DX2 analytically  !
 ! D65   D(9,7,15,29)           60.2887         calculate D2E/DX2 analytically  !
 ! D66   D(9,7,15,30)         -179.6892         calculate D2E/DX2 analytically  !
 ! D67   D(9,7,15,31)          -60.6642         calculate D2E/DX2 analytically  !
 ! D68   D(17,7,15,29)        -120.9487         calculate D2E/DX2 analytically  !
 ! D69   D(17,7,15,30)          -0.9265         calculate D2E/DX2 analytically  !
 ! D70   D(17,7,15,31)         118.0984         calculate D2E/DX2 analytically  !
 ! D71   D(9,7,17,13)            1.002          calculate D2E/DX2 analytically  !
 ! D72   D(9,7,17,43)         -179.2754         calculate D2E/DX2 analytically  !
 ! D73   D(15,7,17,13)        -177.7761         calculate D2E/DX2 analytically  !
 ! D74   D(15,7,17,43)           1.9464         calculate D2E/DX2 analytically  !
 ! D75   D(2,8,10,18)         -179.2552         calculate D2E/DX2 analytically  !
 ! D76   D(2,8,10,22)           -0.8917         calculate D2E/DX2 analytically  !
 ! D77   D(6,8,10,18)            0.1493         calculate D2E/DX2 analytically  !
 ! D78   D(6,8,10,22)          178.5127         calculate D2E/DX2 analytically  !
 ! D79   D(3,9,11,19)         -176.48           calculate D2E/DX2 analytically  !
 ! D80   D(3,9,11,23)            3.4651         calculate D2E/DX2 analytically  !
 ! D81   D(7,9,11,19)            3.0251         calculate D2E/DX2 analytically  !
 ! D82   D(7,9,11,23)         -177.0299         calculate D2E/DX2 analytically  !
 ! D83   D(8,10,18,12)          -0.449          calculate D2E/DX2 analytically  !
 ! D84   D(8,10,18,44)         179.5835         calculate D2E/DX2 analytically  !
 ! D85   D(22,10,18,12)       -178.8981         calculate D2E/DX2 analytically  !
 ! D86   D(22,10,18,44)          1.1345         calculate D2E/DX2 analytically  !
 ! D87   D(8,10,22,4)            5.0065         calculate D2E/DX2 analytically  !
 ! D88   D(8,10,22,46)        -174.7983         calculate D2E/DX2 analytically  !
 ! D89   D(18,10,22,4)        -176.5723         calculate D2E/DX2 analytically  !
 ! D90   D(18,10,22,46)          3.6229         calculate D2E/DX2 analytically  !
 ! D91   D(9,11,19,13)          -1.0274         calculate D2E/DX2 analytically  !
 ! D92   D(9,11,19,45)         179.1448         calculate D2E/DX2 analytically  !
 ! D93   D(23,11,19,13)        179.0244         calculate D2E/DX2 analytically  !
 ! D94   D(23,11,19,45)         -0.8034         calculate D2E/DX2 analytically  !
 ! D95   D(9,11,23,5)            2.7102         calculate D2E/DX2 analytically  !
 ! D96   D(9,11,23,47)        -177.7353         calculate D2E/DX2 analytically  !
 ! D97   D(19,11,23,5)        -177.343          calculate D2E/DX2 analytically  !
 ! D98   D(19,11,23,47)          2.2116         calculate D2E/DX2 analytically  !
 ! D99   D(18,12,16,6)          -0.0101         calculate D2E/DX2 analytically  !
 ! D100  D(18,12,16,42)       -179.9594         calculate D2E/DX2 analytically  !
 ! D101  D(20,12,16,6)         179.9409         calculate D2E/DX2 analytically  !
 ! D102  D(20,12,16,42)         -0.0085         calculate D2E/DX2 analytically  !
 ! D103  D(16,12,18,10)          0.3728         calculate D2E/DX2 analytically  !
 ! D104  D(16,12,18,44)       -179.661          calculate D2E/DX2 analytically  !
 ! D105  D(20,12,18,10)       -179.5758         calculate D2E/DX2 analytically  !
 ! D106  D(20,12,18,44)          0.3905         calculate D2E/DX2 analytically  !
 ! D107  D(16,12,20,32)        179.9918         calculate D2E/DX2 analytically  !
 ! D108  D(16,12,20,33)        -59.7288         calculate D2E/DX2 analytically  !
 ! D109  D(16,12,20,34)         59.643          calculate D2E/DX2 analytically  !
 ! D110  D(18,12,20,32)         -0.061          calculate D2E/DX2 analytically  !
 ! D111  D(18,12,20,33)        120.2183         calculate D2E/DX2 analytically  !
 ! D112  D(18,12,20,34)       -120.4098         calculate D2E/DX2 analytically  !
 ! D113  D(19,13,17,7)           1.0331         calculate D2E/DX2 analytically  !
 ! D114  D(19,13,17,43)       -178.6895         calculate D2E/DX2 analytically  !
 ! D115  D(21,13,17,7)        -179.5768         calculate D2E/DX2 analytically  !
 ! D116  D(21,13,17,43)          0.7007         calculate D2E/DX2 analytically  !
 ! D117  D(17,13,19,11)         -1.0129         calculate D2E/DX2 analytically  !
 ! D118  D(17,13,19,45)        178.8101         calculate D2E/DX2 analytically  !
 ! D119  D(21,13,19,11)        179.5803         calculate D2E/DX2 analytically  !
 ! D120  D(21,13,19,45)         -0.5968         calculate D2E/DX2 analytically  !
 ! D121  D(17,13,21,35)       -119.9598         calculate D2E/DX2 analytically  !
 ! D122  D(17,13,21,36)        120.7517         calculate D2E/DX2 analytically  !
 ! D123  D(17,13,21,37)          0.4342         calculate D2E/DX2 analytically  !
 ! D124  D(19,13,21,35)         59.4076         calculate D2E/DX2 analytically  !
 ! D125  D(19,13,21,36)        -59.8809         calculate D2E/DX2 analytically  !
 ! D126  D(19,13,21,37)        179.8016         calculate D2E/DX2 analytically  !
 ! D127  D(6,14,26,50)         178.7847         calculate D2E/DX2 analytically  !
 ! D128  D(6,14,26,51)         -60.9595         calculate D2E/DX2 analytically  !
 ! D129  D(6,14,26,52)          59.9859         calculate D2E/DX2 analytically  !
 ! D130  D(27,14,26,50)        -60.2801         calculate D2E/DX2 analytically  !
 ! D131  D(27,14,26,51)         59.9757         calculate D2E/DX2 analytically  !
 ! D132  D(27,14,26,52)       -179.0789         calculate D2E/DX2 analytically  !
 ! D133  D(28,14,26,50)         56.0105         calculate D2E/DX2 analytically  !
 ! D134  D(28,14,26,51)        176.2663         calculate D2E/DX2 analytically  !
 ! D135  D(28,14,26,52)        -62.7883         calculate D2E/DX2 analytically  !
 ! D136  D(6,14,27,53)         -60.6133         calculate D2E/DX2 analytically  !
 ! D137  D(6,14,27,54)          60.1672         calculate D2E/DX2 analytically  !
 ! D138  D(6,14,27,55)        -179.7039         calculate D2E/DX2 analytically  !
 ! D139  D(26,14,27,53)        177.686          calculate D2E/DX2 analytically  !
 ! D140  D(26,14,27,54)        -61.5334         calculate D2E/DX2 analytically  !
 ! D141  D(26,14,27,55)         58.5954         calculate D2E/DX2 analytically  !
 ! D142  D(28,14,27,53)         61.4698         calculate D2E/DX2 analytically  !
 ! D143  D(28,14,27,54)       -177.7496         calculate D2E/DX2 analytically  !
 ! D144  D(28,14,27,55)        -57.6208         calculate D2E/DX2 analytically  !
 ! D145  D(6,14,28,56)        -179.6175         calculate D2E/DX2 analytically  !
 ! D146  D(6,14,28,57)         -60.577          calculate D2E/DX2 analytically  !
 ! D147  D(6,14,28,58)          61.3768         calculate D2E/DX2 analytically  !
 ! D148  D(26,14,28,56)        -57.5983         calculate D2E/DX2 analytically  !
 ! D149  D(26,14,28,57)         61.4422         calculate D2E/DX2 analytically  !
 ! D150  D(26,14,28,58)       -176.604          calculate D2E/DX2 analytically  !
 ! D151  D(27,14,28,56)         59.8526         calculate D2E/DX2 analytically  !
 ! D152  D(27,14,28,57)        178.8931         calculate D2E/DX2 analytically  !
 ! D153  D(27,14,28,58)        -59.1531         calculate D2E/DX2 analytically  !
 ! D154  D(7,15,29,59)        -178.1525         calculate D2E/DX2 analytically  !
 ! D155  D(7,15,29,60)         -57.7536         calculate D2E/DX2 analytically  !
 ! D156  D(7,15,29,61)          63.2414         calculate D2E/DX2 analytically  !
 ! D157  D(30,15,29,59)         58.9678         calculate D2E/DX2 analytically  !
 ! D158  D(30,15,29,60)        179.3668         calculate D2E/DX2 analytically  !
 ! D159  D(30,15,29,61)        -59.6382         calculate D2E/DX2 analytically  !
 ! D160  D(31,15,29,59)        -57.3438         calculate D2E/DX2 analytically  !
 ! D161  D(31,15,29,60)         63.0552         calculate D2E/DX2 analytically  !
 ! D162  D(31,15,29,61)       -175.9498         calculate D2E/DX2 analytically  !
 ! D163  D(7,15,30,62)         179.7098         calculate D2E/DX2 analytically  !
 ! D164  D(7,15,30,63)         -61.2698         calculate D2E/DX2 analytically  !
 ! D165  D(7,15,30,64)          60.6822         calculate D2E/DX2 analytically  !
 ! D166  D(29,15,30,62)        -58.2942         calculate D2E/DX2 analytically  !
 ! D167  D(29,15,30,63)         60.7262         calculate D2E/DX2 analytically  !
 ! D168  D(29,15,30,64)       -177.3218         calculate D2E/DX2 analytically  !
 ! D169  D(31,15,30,62)         59.5023         calculate D2E/DX2 analytically  !
 ! D170  D(31,15,30,63)        178.5227         calculate D2E/DX2 analytically  !
 ! D171  D(31,15,30,64)        -59.5253         calculate D2E/DX2 analytically  !
 ! D172  D(7,15,31,65)         -61.4252         calculate D2E/DX2 analytically  !
 ! D173  D(7,15,31,66)          59.3554         calculate D2E/DX2 analytically  !
 ! D174  D(7,15,31,67)         179.6482         calculate D2E/DX2 analytically  !
 ! D175  D(29,15,31,65)        176.9053         calculate D2E/DX2 analytically  !
 ! D176  D(29,15,31,66)        -62.3141         calculate D2E/DX2 analytically  !
 ! D177  D(29,15,31,67)         57.9787         calculate D2E/DX2 analytically  !
 ! D178  D(30,15,31,65)         60.5782         calculate D2E/DX2 analytically  !
 ! D179  D(30,15,31,66)       -178.6412         calculate D2E/DX2 analytically  !
 ! D180  D(30,15,31,67)        -58.3485         calculate D2E/DX2 analytically  !
 ! D181  D(12,20,32,68)        179.9251         calculate D2E/DX2 analytically  !
 ! D182  D(12,20,32,69)        -60.7335         calculate D2E/DX2 analytically  !
 ! D183  D(12,20,32,70)         60.5695         calculate D2E/DX2 analytically  !
 ! D184  D(33,20,32,68)         58.9731         calculate D2E/DX2 analytically  !
 ! D185  D(33,20,32,69)        178.3145         calculate D2E/DX2 analytically  !
 ! D186  D(33,20,32,70)        -60.3824         calculate D2E/DX2 analytically  !
 ! D187  D(34,20,32,68)        -59.0084         calculate D2E/DX2 analytically  !
 ! D188  D(34,20,32,69)         60.333          calculate D2E/DX2 analytically  !
 ! D189  D(34,20,32,70)       -178.3639         calculate D2E/DX2 analytically  !
 ! D190  D(12,20,33,71)        179.3432         calculate D2E/DX2 analytically  !
 ! D191  D(12,20,33,72)        -60.9088         calculate D2E/DX2 analytically  !
 ! D192  D(12,20,33,73)         59.5617         calculate D2E/DX2 analytically  !
 ! D193  D(32,20,33,71)        -58.2334         calculate D2E/DX2 analytically  !
 ! D194  D(32,20,33,72)         61.5147         calculate D2E/DX2 analytically  !
 ! D195  D(32,20,33,73)       -178.0148         calculate D2E/DX2 analytically  !
 ! D196  D(34,20,33,71)         59.4751         calculate D2E/DX2 analytically  !
 ! D197  D(34,20,33,72)        179.2232         calculate D2E/DX2 analytically  !
 ! D198  D(34,20,33,73)        -60.3063         calculate D2E/DX2 analytically  !
 ! D199  D(12,20,34,74)        -59.7244         calculate D2E/DX2 analytically  !
 ! D200  D(12,20,34,75)         60.7697         calculate D2E/DX2 analytically  !
 ! D201  D(12,20,34,76)       -179.4811         calculate D2E/DX2 analytically  !
 ! D202  D(32,20,34,74)        177.7927         calculate D2E/DX2 analytically  !
 ! D203  D(32,20,34,75)        -61.7132         calculate D2E/DX2 analytically  !
 ! D204  D(32,20,34,76)         58.036          calculate D2E/DX2 analytically  !
 ! D205  D(33,20,34,74)         60.0895         calculate D2E/DX2 analytically  !
 ! D206  D(33,20,34,75)       -179.4164         calculate D2E/DX2 analytically  !
 ! D207  D(33,20,34,76)        -59.6672         calculate D2E/DX2 analytically  !
 ! D208  D(13,21,35,77)       -179.497          calculate D2E/DX2 analytically  !
 ! D209  D(13,21,35,78)        -59.6978         calculate D2E/DX2 analytically  !
 ! D210  D(13,21,35,79)         60.7226         calculate D2E/DX2 analytically  !
 ! D211  D(36,21,35,77)        -59.7723         calculate D2E/DX2 analytically  !
 ! D212  D(36,21,35,78)         60.0269         calculate D2E/DX2 analytically  !
 ! D213  D(36,21,35,79)       -179.5526         calculate D2E/DX2 analytically  !
 ! D214  D(37,21,35,77)         57.7114         calculate D2E/DX2 analytically  !
 ! D215  D(37,21,35,78)        177.5105         calculate D2E/DX2 analytically  !
 ! D216  D(37,21,35,79)        -62.069          calculate D2E/DX2 analytically  !
 ! D217  D(13,21,36,80)        -60.6651         calculate D2E/DX2 analytically  !
 ! D218  D(13,21,36,81)         59.7722         calculate D2E/DX2 analytically  !
 ! D219  D(13,21,36,82)        179.5608         calculate D2E/DX2 analytically  !
 ! D220  D(35,21,36,80)        179.5634         calculate D2E/DX2 analytically  !
 ! D221  D(35,21,36,81)        -59.9993         calculate D2E/DX2 analytically  !
 ! D222  D(35,21,36,82)         59.7893         calculate D2E/DX2 analytically  !
 ! D223  D(37,21,36,80)         62.0672         calculate D2E/DX2 analytically  !
 ! D224  D(37,21,36,81)       -177.4956         calculate D2E/DX2 analytically  !
 ! D225  D(37,21,36,82)        -57.707          calculate D2E/DX2 analytically  !
 ! D226  D(13,21,37,83)        179.7551         calculate D2E/DX2 analytically  !
 ! D227  D(13,21,37,84)        -60.9842         calculate D2E/DX2 analytically  !
 ! D228  D(13,21,37,85)         60.4924         calculate D2E/DX2 analytically  !
 ! D229  D(35,21,37,83)        -59.103          calculate D2E/DX2 analytically  !
 ! D230  D(35,21,37,84)         60.1577         calculate D2E/DX2 analytically  !
 ! D231  D(35,21,37,85)       -178.3657         calculate D2E/DX2 analytically  !
 ! D232  D(36,21,37,83)         58.7208         calculate D2E/DX2 analytically  !
 ! D233  D(36,21,37,84)        177.9815         calculate D2E/DX2 analytically  !
 ! D234  D(36,21,37,85)        -60.5419         calculate D2E/DX2 analytically  !
 ! D235  D(4,24,25,5)          -44.2224         calculate D2E/DX2 analytically  !
 ! D236  D(4,24,25,39)        -171.9269         calculate D2E/DX2 analytically  !
 ! D237  D(4,24,25,49)          67.9709         calculate D2E/DX2 analytically  !
 ! D238  D(38,24,25,5)          75.523          calculate D2E/DX2 analytically  !
 ! D239  D(38,24,25,39)        -52.1814         calculate D2E/DX2 analytically  !
 ! D240  D(38,24,25,49)       -172.2836         calculate D2E/DX2 analytically  !
 ! D241  D(48,24,25,5)        -163.1637         calculate D2E/DX2 analytically  !
 ! D242  D(48,24,25,39)         69.1319         calculate D2E/DX2 analytically  !
 ! D243  D(48,24,25,49)        -50.9704         calculate D2E/DX2 analytically  !
 ! D244  D(4,24,38,40)         172.1806         calculate D2E/DX2 analytically  !
 ! D245  D(4,24,38,86)          51.2376         calculate D2E/DX2 analytically  !
 ! D246  D(4,24,38,87)         -64.276          calculate D2E/DX2 analytically  !
 ! D247  D(25,24,38,40)         54.4883         calculate D2E/DX2 analytically  !
 ! D248  D(25,24,38,86)        -66.4547         calculate D2E/DX2 analytically  !
 ! D249  D(25,24,38,87)        178.0317         calculate D2E/DX2 analytically  !
 ! D250  D(48,24,38,40)        -66.6804         calculate D2E/DX2 analytically  !
 ! D251  D(48,24,38,86)        172.3766         calculate D2E/DX2 analytically  !
 ! D252  D(48,24,38,87)         56.863          calculate D2E/DX2 analytically  !
 ! D253  D(5,25,39,41)         -68.3054         calculate D2E/DX2 analytically  !
 ! D254  D(5,25,39,88)         171.8514         calculate D2E/DX2 analytically  !
 ! D255  D(5,25,39,89)          57.5725         calculate D2E/DX2 analytically  !
 ! D256  D(24,25,39,41)         53.1307         calculate D2E/DX2 analytically  !
 ! D257  D(24,25,39,88)        -66.7126         calculate D2E/DX2 analytically  !
 ! D258  D(24,25,39,89)        179.0085         calculate D2E/DX2 analytically  !
 ! D259  D(49,25,39,41)        172.1589         calculate D2E/DX2 analytically  !
 ! D260  D(49,25,39,88)         52.3156         calculate D2E/DX2 analytically  !
 ! D261  D(49,25,39,89)        -61.9633         calculate D2E/DX2 analytically  !
 ! D262  D(14,27,54,105)      -112.1939         calculate D2E/DX2 analytically  !
 ! D263  D(53,27,54,105)         9.9226         calculate D2E/DX2 analytically  !
 ! D264  D(55,27,54,105)       126.384          calculate D2E/DX2 analytically  !
 ! D265  D(15,29,61,100)       -90.2067         calculate D2E/DX2 analytically  !
 ! D266  D(59,29,61,100)       149.5576         calculate D2E/DX2 analytically  !
 ! D267  D(60,29,61,100)        32.3418         calculate D2E/DX2 analytically  !
 ! D268  D(24,38,40,41)        -56.6464         calculate D2E/DX2 analytically  !
 ! D269  D(24,38,40,90)       -179.3731         calculate D2E/DX2 analytically  !
 ! D270  D(24,38,40,91)         64.0638         calculate D2E/DX2 analytically  !
 ! D271  D(86,38,40,41)         63.3319         calculate D2E/DX2 analytically  !
 ! D272  D(86,38,40,90)        -59.3948         calculate D2E/DX2 analytically  !
 ! D273  D(86,38,40,91)       -175.9579         calculate D2E/DX2 analytically  !
 ! D274  D(87,38,40,41)       -178.7807         calculate D2E/DX2 analytically  !
 ! D275  D(87,38,40,90)         58.4927         calculate D2E/DX2 analytically  !
 ! D276  D(87,38,40,91)        -58.0705         calculate D2E/DX2 analytically  !
 ! D277  D(25,39,41,40)        -55.0702         calculate D2E/DX2 analytically  !
 ! D278  D(25,39,41,92)       -177.4995         calculate D2E/DX2 analytically  !
 ! D279  D(25,39,41,93)         65.8257         calculate D2E/DX2 analytically  !
 ! D280  D(88,39,41,40)         63.2552         calculate D2E/DX2 analytically  !
 ! D281  D(88,39,41,92)        -59.1741         calculate D2E/DX2 analytically  !
 ! D282  D(88,39,41,93)       -175.8489         calculate D2E/DX2 analytically  !
 ! D283  D(89,39,41,40)        179.5849         calculate D2E/DX2 analytically  !
 ! D284  D(89,39,41,92)         57.1556         calculate D2E/DX2 analytically  !
 ! D285  D(89,39,41,93)        -59.5193         calculate D2E/DX2 analytically  !
 ! D286  D(38,40,41,39)         56.2209         calculate D2E/DX2 analytically  !
 ! D287  D(38,40,41,92)        178.1424         calculate D2E/DX2 analytically  !
 ! D288  D(38,40,41,93)        -65.0384         calculate D2E/DX2 analytically  !
 ! D289  D(90,40,41,39)        178.4862         calculate D2E/DX2 analytically  !
 ! D290  D(90,40,41,92)        -59.5922         calculate D2E/DX2 analytically  !
 ! D291  D(90,40,41,93)         57.2269         calculate D2E/DX2 analytically  !
 ! D292  D(91,40,41,39)        -64.5685         calculate D2E/DX2 analytically  !
 ! D293  D(91,40,41,92)         57.3531         calculate D2E/DX2 analytically  !
 ! D294  D(91,40,41,93)        174.1723         calculate D2E/DX2 analytically  !
 ! D295  D(27,54,105,98)      -173.8098         calculate D2E/DX2 analytically  !
 ! D296  D(29,61,100,96)       -74.3061         calculate D2E/DX2 analytically  !
 ! D297  D(1,94,98,95)         -82.657          calculate D2E/DX2 analytically  !
 ! D298  D(1,94,98,105)         97.8504         calculate D2E/DX2 analytically  !
 ! D299  D(97,95,96,99)         61.526          calculate D2E/DX2 analytically  !
 ! D300  D(97,95,96,100)       -58.236          calculate D2E/DX2 analytically  !
 ! D301  D(97,95,96,101)      -178.2133         calculate D2E/DX2 analytically  !
 ! D302  D(98,95,96,99)       -116.0802         calculate D2E/DX2 analytically  !
 ! D303  D(98,95,96,100)       124.1578         calculate D2E/DX2 analytically  !
 ! D304  D(98,95,96,101)         4.1804         calculate D2E/DX2 analytically  !
 ! D305  D(96,95,97,102)       -56.8756         calculate D2E/DX2 analytically  !
 ! D306  D(96,95,97,103)      -176.734          calculate D2E/DX2 analytically  !
 ! D307  D(96,95,97,104)        63.0816         calculate D2E/DX2 analytically  !
 ! D308  D(98,95,97,102)       120.7224         calculate D2E/DX2 analytically  !
 ! D309  D(98,95,97,103)         0.864          calculate D2E/DX2 analytically  !
 ! D310  D(98,95,97,104)      -119.3203         calculate D2E/DX2 analytically  !
 ! D311  D(96,95,98,94)         -1.2006         calculate D2E/DX2 analytically  !
 ! D312  D(96,95,98,105)       178.3352         calculate D2E/DX2 analytically  !
 ! D313  D(97,95,98,94)       -178.7039         calculate D2E/DX2 analytically  !
 ! D314  D(97,95,98,105)         0.8319         calculate D2E/DX2 analytically  !
 ! D315  D(95,96,100,61)         4.7892         calculate D2E/DX2 analytically  !
 ! D316  D(99,96,100,61)      -115.9393         calculate D2E/DX2 analytically  !
 ! D317  D(101,96,100,61)      124.6524         calculate D2E/DX2 analytically  !
 ! D318  D(94,98,105,54)      -109.2896         calculate D2E/DX2 analytically  !
 ! D319  D(95,98,105,54)        71.1565         calculate D2E/DX2 analytically  !
 --------------------------------------------------------------------------------
 Trust Radius=3.00D-01 FncErr=5.00D-06 GrdErr=5.00D-06 EigMax=2.50D+02 EigMin=1.00D-04
 Number of optimizations in scan=   3
 Number of steps in this run=    630 maximum allowed number of steps=    630.
 GradGradGradGradGradGradGradGradGradGradGradGradGradGradGradGradGradGrad

 Symmetry turned off by external request.
 Stoichiometry    C39H59CoN3O3(1-)
 Framework group  C1[X(C39H59CoN3O3)]
 Deg. of freedom   309
 Full point group                 C1      NOp   1
                          Input orientation:                          
 ---------------------------------------------------------------------
 Center     Atomic      Atomic             Coordinates (Angstroms)
 Number     Number       Type             X           Y           Z
 ---------------------------------------------------------------------
      1         27           0       -0.211561   -0.394215   -3.831498
      2          8           0        1.014959   -1.869884   -3.844509
      3          8           0       -1.567653   -1.674236   -3.420888
      4          7           0        1.067548    0.821213   -4.484267
      5          7           0       -1.396187    1.076808   -3.777852
      6          6           0        3.077784   -3.021552   -3.796481
      7          6           0       -3.722263   -2.602666   -3.156494
      8          6           0        2.300580   -1.825823   -4.001391
      9          6           0       -2.844858   -1.477525   -3.309845
     10          6           0        3.004829   -0.637101   -4.386060
     11          6           0       -3.434529   -0.170269   -3.322305
     12          6           0        5.156521   -1.792842   -4.356701
     13          6           0       -5.667742   -1.088439   -2.932068
     14          6           0        2.394005   -4.324442   -3.361984
     15          6           0       -3.159940   -4.027465   -3.232113
     16          6           0        4.449669   -2.956283   -3.976726
     17          6           0       -5.078851   -2.368486   -2.966182
     18          6           0        4.408061   -0.653439   -4.557181
     19          6           0       -4.820716   -0.013034   -3.123725
     20          6           0        6.674263   -1.854759   -4.520600
     21          6           0       -7.166125   -0.865426   -2.710803
     22          6           0        2.333569    0.600548   -4.647073
     23          6           0       -2.667544    1.023461   -3.531095
     24          6           0        0.478684    2.106664   -4.867555
     25          6           0       -0.672290    2.364945   -3.889626
     26          6           0        1.323690   -4.747034   -4.379778
     27          6           0        1.736849   -4.128607   -1.987392
     28          6           0        3.386930   -5.481386   -3.236282
     29          6           0       -2.108489   -4.258210   -2.135211
     30          6           0       -4.246962   -5.088809   -3.053420
     31          6           0       -2.523028   -4.251651   -4.612831
     32          6           0        7.259365   -0.505894   -4.933595
     33          6           0        7.317634   -2.275500   -3.192218
     34          6           0        7.035273   -2.889040   -5.595412
     35          6           0       -7.761216   -0.131751   -3.919994
     36          6           0       -7.376862   -0.005420   -1.457531
     37          6           0       -7.925979   -2.178004   -2.524558
     38          6           0       -0.020127    2.039739   -6.311758
     39          6           0       -1.494399    3.579044   -4.302794
     40          6           0       -0.809754    3.283823   -6.694757
     41          6           0       -1.980778    3.498382   -5.744324
     42          1           0        5.030281   -3.859037   -3.815698
     43          1           0       -5.727175   -3.226865   -2.839987
     44          1           0        4.881163    0.278311   -4.856145
     45          1           0       -5.214911    1.002082   -3.128444
     46          1           0        2.954600    1.422851   -5.018902
     47          1           0       -3.232971    1.957172   -3.478579
     48          1           0        1.224139    2.907395   -4.771952
     49          1           0       -0.234135    2.539736   -2.898173
     50          1           0        0.860601   -5.689545   -4.065896
     51          1           0        0.542937   -3.992801   -4.471415
     52          1           0        1.765110   -4.910736   -5.369164
     53          1           0        2.485494   -3.866096   -1.231711
     54          1           0        0.985240   -3.339316   -2.019500
     55          1           0        1.248254   -5.054354   -1.661559
     56          1           0        2.850798   -6.385599   -2.931921
     57          1           0        3.889516   -5.702097   -4.183603
     58          1           0        4.157249   -5.290401   -2.482470
     59          1           0       -1.690523   -5.268388   -2.220006
     60          1           0       -1.292661   -3.538516   -2.210133
     61          1           0       -2.561490   -4.173186   -1.140982
     62          1           0       -3.795532   -6.083614   -3.120692
     63          1           0       -4.739594   -5.019154   -2.078232
     64          1           0       -5.019587   -5.028672   -3.826585
     65          1           0       -3.270329   -4.145472   -5.406795
     66          1           0       -1.717266   -3.541286   -4.801748
     67          1           0       -2.110227   -5.264430   -4.681293
     68          1           0        8.345411   -0.587621   -5.039943
     69          1           0        6.860436   -0.163168   -5.893503
     70          1           0        7.059829    0.272006   -4.189913
     71          1           0        8.406638   -2.336922   -3.292963
     72          1           0        7.095400   -1.554618   -2.398667
     73          1           0        6.962138   -3.255800   -2.861043
     74          1           0        6.674632   -3.888649   -5.335082
     75          1           0        6.603101   -2.620436   -6.564832
     76          1           0        8.121669   -2.953227   -5.719665
     77          1           0       -8.832739    0.045270   -3.776431
     78          1           0       -7.284781    0.840319   -4.078009
     79          1           0       -7.639045   -0.716284   -4.837648
     80          1           0       -6.972357   -0.496838   -0.566659
     81          1           0       -6.890471    0.970089   -1.550252
     82          1           0       -8.444000    0.172722   -1.285473
     83          1           0       -8.988738   -1.971040   -2.365694
     84          1           0       -7.846633   -2.827681   -3.401850
     85          1           0       -7.568408   -2.740493   -1.656308
     86          1           0       -0.656810    1.149298   -6.412778
     87          1           0        0.836686    1.889577   -6.977015
     88          1           0       -0.841061    4.453164   -4.190433
     89          1           0       -2.321923    3.740440   -3.605898
     90          1           0       -1.160705    3.198939   -7.727989
     91          1           0       -0.149229    4.161144   -6.661769
     92          1           0       -2.525994    4.411377   -6.003191
     93          1           0       -2.694317    2.670937   -5.853503
     94          8           0        0.539220    0.106609   -1.587649
     95          7           0       -0.292730   -1.488313   -0.168857
     96          6           0       -1.658768   -1.011730   -0.220087
     97          6           0       -0.017635   -2.618834    0.690911
     98          6           0        0.685114   -0.872979   -0.854302
     99          1           0       -1.976544   -0.672259    0.771617
    100          1           0       -2.329817   -1.812641   -0.544287
    101          1           0       -1.720150   -0.184698   -0.926169
    102          1           0       -0.323061   -2.399011    1.718938
    103          1           0        1.050765   -2.836815    0.680972
    104          1           0       -0.563219   -3.505536    0.351488
    105          1           0        1.672771   -1.340580   -0.686540
 ---------------------------------------------------------------------
 Rotational constants (GHZ):           0.1067637           0.0446899           0.0363702
 General basis read from cards:  (5D, 7F)
 ======================================================================================================
                                       Pseudopotential Parameters
 ======================================================================================================
  Center     Atomic      Valence      Angular      Power
  Number     Number     Electrons     Momentum     of R      Exponent        Coefficient   SO-Coeffient
 ======================================================================================================
    1         27           17
                                      F and up 
                                                     2        1.0000000        0.00000000    0.00000000
                                      S - F
                                                     2       23.6600000      283.96056600    0.00000000
                                                     2       10.6100000       47.15684600    0.00000000
                                      P - F
                                                     2       25.0400000      182.21223600    0.00000000
                                                     2       10.4400000       35.23335200    0.00000000
                                      D - F
                                                     2       29.5400000      -26.47533300    0.00000000
                                                     2       10.1800000       -1.82578700    0.00000000
    2          8
                                   No pseudopotential on this center.
    3          8
                                   No pseudopotential on this center.
    4          7
                                   No pseudopotential on this center.
    5          7
                                   No pseudopotential on this center.
    6          6
                                   No pseudopotential on this center.
    7          6
                                   No pseudopotential on this center.
    8          6
                                   No pseudopotential on this center.
    9          6
                                   No pseudopotential on this center.
   10          6
                                   No pseudopotential on this center.
   11          6
                                   No pseudopotential on this center.
   12          6
                                   No pseudopotential on this center.
   13          6
                                   No pseudopotential on this center.
   14          6
                                   No pseudopotential on this center.
   15          6
                                   No pseudopotential on this center.
   16          6
                                   No pseudopotential on this center.
   17          6
                                   No pseudopotential on this center.
   18          6
                                   No pseudopotential on this center.
   19          6
                                   No pseudopotential on this center.
   20          6
                                   No pseudopotential on this center.
   21          6
                                   No pseudopotential on this center.
   22          6
                                   No pseudopotential on this center.
   23          6
                                   No pseudopotential on this center.
   24          6
                                   No pseudopotential on this center.
   25          6
                                   No pseudopotential on this center.
   26          6
                                   No pseudopotential on this center.
   27          6
                                   No pseudopotential on this center.
   28          6
                                   No pseudopotential on this center.
   29          6
                                   No pseudopotential on this center.
   30          6
                                   No pseudopotential on this center.
   31          6
                                   No pseudopotential on this center.
   32          6
                                   No pseudopotential on this center.
   33          6
                                   No pseudopotential on this center.
   34          6
                                   No pseudopotential on this center.
   35          6
                                   No pseudopotential on this center.
   36          6
                                   No pseudopotential on this center.
   37          6
                                   No pseudopotential on this center.
   38          6
                                   No pseudopotential on this center.
   39          6
                                   No pseudopotential on this center.
   40          6
                                   No pseudopotential on this center.
   41          6
                                   No pseudopotential on this center.
   42          1
                                   No pseudopotential on this center.
   43          1
                                   No pseudopotential on this center.
   44          1
                                   No pseudopotential on this center.
   45          1
                                   No pseudopotential on this center.
   46          1
                                   No pseudopotential on this center.
   47          1
                                   No pseudopotential on this center.
   48          1
                                   No pseudopotential on this center.
   49          1
                                   No pseudopotential on this center.
   50          1
                                   No pseudopotential on this center.
   51          1
                                   No pseudopotential on this center.
   52          1
                                   No pseudopotential on this center.
   53          1
                                   No pseudopotential on this center.
   54          1
                                   No pseudopotential on this center.
   55          1
                                   No pseudopotential on this center.
   56          1
                                   No pseudopotential on this center.
   57          1
                                   No pseudopotential on this center.
   58          1
[...]
 000124,-0.00000070,0.00000119,-0.00000115,-0.00000339,-0.00000018,0.00
 000196,-0.00000068,0.00000032,0.00000076,0.00000012,-0.00000005,0.0000
 0100,-0.00000223,0.00000102,0.00000100,-0.00000345,-0.00000232,-0.0000
 0066,0.00000557,0.00000021,-0.00000672,0.00000225,0.00000260,-0.000001
 49,0.00000120,0.00000268,-0.00000375,0.00000403,-0.00000092,-0.0000037
 0,-0.00000105,0.00000328,-0.00000427,0.00000557,0.00000112,0.00000326,
 -0.00000037,-0.00157844,-0.00254809,0.00323298,-0.01585260,-0.02899674
 ,0.00361643,-0.00256263,0.00114236,-0.00047830,-0.09968002,-0.19652902
 ,-0.07691663,0.00683344,-0.00042387,-0.00482999,0.00031806,-0.00012480
 ,-0.00024081,0.00061927,0.00017890,-0.00002175,-0.00007164,0.00020520,
 0.00006638,-0.00407391,-0.00440795,-0.00354357,0.00456337,0.00726797,0
 .00317532,0.11177784,0.22405953,0.00002963,0.00004751,0.00001296,0.000
 02577,-0.00003413,-0.00003046,-0.00000674,-0.00006341,0.00001136,0.000
 01178,-0.00000740,-0.00002894,0.00001592,-0.00001447,-0.00002313,-0.00
 000229,0.00002413,-0.00000223,0.00000623,0.00004621,0.00001656,-0.0000
 2275,-0.00000341,0.00000647,-0.00001847,-0.00001444,-0.00001660,0.0000
 0869,0.00000553,-0.00000544,-0.00000659,-0.00000045,0.00000319,0.00000
 063,-0.00001628,0.00000032,0.00000191,-0.00002985,0.00000361,-0.000012
 85,0.00005257,-0.00009225,-0.00015486,0.00012789,-0.00021824,0.0000175
 0,-0.00000079,0.00000266,-0.00002184,-0.00000258,0.00000055,-0.0000160
 8,0.00000211,0.00000137,0.00001771,0.00000200,-0.00000402,-0.00000034,
 -0.00000149,-0.00000008,-0.00000038,-0.00000300,-0.00000004,-0.0000349
 0,0.00000690,0.00000140,0.00000013,0.00001355,0.00000536,0.00000163,-0
 .00001614,0.00000436,0.00000094,-0.00000594,0.00001100,-0.00000085,-0.
 00000822,0.00000429,-0.00003453,-0.00020603,0.00018997,-0.00001038,-0.
 00000491,0.00004714,-0.00007149,-0.00023798,-0.00029104,0.00003750,-0.
 00003303,0.00007940,0.00004810,-0.00001637,0.00000532,0.00000105,0.000
 00024,0.00000004,0.00000179,-0.00000035,0.00000017,-0.00000091,-0.0000
 0025,0.00000040,0.00000069,0.00000048,-0.00000127,0.00000245,0.0000009
 6,0.00000151,0.00000300,-0.00000128,0.00000221,0.00000151,0.00000735,-
 0.00000095,-0.00000146,-0.00000202,-0.00000461,0.00000021,-0.00000121,
 0.00000108,-0.00000111,-0.00000087,0.00000064,0.00000209,0.00000018,0.
 00000078,0.00000015,0.00000317,0.00000476,0.00000065,0.00000102,0.0000
 0093,0.00000099,-0.00000159,0.00000116,0.00000328,0.00000132,0.0000005
 4,-0.00000206,-0.00000166,0.00000178,0.00000245,0.00000046,-0.00000115
 ,0.00000466,-0.00002086,0.00000122,0.00000185,-0.00000118,0.00000325,0
 .00000035,0.00000616,-0.00000383,-0.00000129,0.00000396,0.00000567,-0.
 00003665,0.00002548,0.00002198,-0.00023764,0.00019098,-0.00000008,0.00
 018280,-0.00009116,-0.00016322,0.00000205,-0.00000079,-0.00000090,-0.0
 0001299,0.00001388,0.00000287,-0.00000276,-0.00000295,-0.00000376,0.00
 007522,-0.00000614,0.00009551,0.00013496,0.00015368,-0.00026628,-0.000
 08297,0.00002240,0.00010210,-0.00000433,-0.00000030,0.00000166,0.00000
 239,0.00000062,-0.00000505,0.00002734,0.00002027,-0.00000104,-0.000001
 87,0.00000358,0.00002249,-0.00000207,0.00000497,-0.00000069,-0.0000014
 9,-0.00000034,-0.00000452,-0.00000032,-0.00000006,0.00000060,-0.000000
 05,-0.00000002,-0.00000053,0.00000001,-0.00000063,0.00000019,-0.000000
 08,-0.00000010,0.00000063,0.00000012,0.00000117,-0.00000037,0.00000080
 ,-0.00000104,-0.00000079,-0.00000068,0.00000065,-0.00000071,0.00000003
 ,-0.00000007,0.00000079,0.00000102,-0.00000059,-0.00000036,-0.00000037
 ,0.00000046,0.00000017,-0.00000049,0.00000019,-0.00000011,0.00000010,0
 .00000025,0.00000016,0.00000092,-0.00000132,-0.00000039,0.00000027,-0.
 00000081,0.00000002,-0.00000031,0.00000027,-0.00000105,-0.00000103,0.0
 0000020,-0.00000002,-0.00000026,-0.00000046,-0.00000049,-0.00000060,0.
 00000064,-0.00000168,0.00000010,0.00000010,0.00000119,0.00000095,0.000
 00042,-0.00000231,0.00000004,0.00000109,0.00000034,-0.00000169,0.00000
 075,0.00000028,-0.00000022,0.00000094,-0.00000112,-0.00000049,0.000001
 43,-0.00000091,-0.00000197,0.00000309,-0.00000187,-0.00000014,-0.00000
 036,-0.00000068,0.00101211,0.00076443,-0.00212937,0.01430076,0.0233366
 3,0.00688696,0.00166776,-0.00023563,0.00085272,-0.05431747,-0.08008710
 ,-0.08598081,-0.00250637,0.00264235,0.00140900,-0.00031118,-0.00008135
 ,-0.00026211,-0.00013001,-0.00085468,0.00004522,0.00021335,-0.00006173
 ,-0.00003902,-0.01524132,-0.02122744,-0.01016797,0.00110374,-0.0002283
 7,-0.00101687,0.05417171,0.07616562,0.09081035,0.00016097,0.00016782,0
 .00028229,-0.00031138,-0.00010330,-0.00008502,-0.00011871,-0.00000935,
 -0.00007452,0.00001125,-0.00008247,0.00000175,-0.00012470,0.00007846,-
 0.00008465,-0.00002593,-0.00004217,0.00001316,-0.00001771,0.00000468,-
 0.00001246,0.00029642,0.00009456,0.00030606,0.00017544,0.00000724,-0.0
 0001035,0.00011524,0.00004949,-0.00018465,-0.00003561,0.00000687,-0.00
 002209,-0.00000735,-0.00011159,0.00003547,-0.00001464,-0.00001365,0.00
 001169,-0.00004167,0.00001373,-0.00007995,0.00000491,0.00001482,0.0000
 0235,0.00009986,0.00002675,-0.00001754,0.00000594,-0.00000778,-0.00000
 412,-0.00012787,0.00003654,-0.00002752,0.00004067,0.00000125,-0.000011
 72,0.00000016,-0.00000225,-0.00000137,0.00001296,-0.00000070,0.0000030
 0,-0.00008313,0.00001330,-0.00003020,0.00013164,-0.00003019,-0.0000395
 5,-0.00000827,-0.00004116,0.00001937,0.00000209,-0.00002703,0.00007266
 ,-0.00000281,-0.00001100,0.00000458,0.00019088,0.00033349,0.00013479,-
 0.00000423,-0.00001364,0.00003115,0.00000327,-0.00001571,-0.00000330,0
 .00000408,-0.00000023,-0.00000209,0.00000036,-0.00000717,0.00000565,-0
 .00000005,0.00000036,0.00000018,0.00000498,-0.00000219,-0.00000506,0.0
 0000134,-0.00000058,0.00000019,-0.00000413,-0.00000138,0.00000477,-0.0
 0000479,-0.00000002,-0.00000156,-0.00000312,0.00000411,0.00000083,0.00
 001510,0.00000726,0.00000529,-0.00000024,-0.00001562,-0.00002728,-0.00
 000380,-0.00000730,0.00000051,-0.00000511,0.00001421,0.00000593,0.0000
 0090,-0.00000247,-0.00000626,-0.00000345,-0.00000106,0.00000221,-0.000
 00150,0.00000334,0.00000199,-0.00000308,0.00000400,0.00000407,0.000009
 79,0.00000198,0.00000878,-0.00000475,0.00000781,0.00001129,0.00001121,
 0.00000365,-0.00000361,0.00000490,-0.00009633,-0.00000998,0.00000016,-
 0.00000078,-0.00000300,-0.00000657,-0.00000253,-0.00001029,-0.00000174
 ,0.00000348,0.00001300,0.00009341,0.00001881,-0.00004170,-0.00014206,-
 0.00013968,-0.00011060,0.00000171,0.00011879,0.00004903,0.00000055,0.0
 0000044,0.00000068,-0.00001425,0.00001224,0.00000812,0.00000176,-0.000
 00332,-0.00000004,0.00000062,-0.00001038,-0.00000135,-0.00001665,0.000
 01244,0.00000015,0.00000662,-0.00000255,-0.00000393,-0.00000019,-0.000
 00365,0.00000045,-0.00000033,0.00000056,-0.00000076,-0.00000224,-0.000
 00040,-0.00000032,-0.00000108,0.00000076,-0.00000224,-0.00000229,0.000
 00698,0.00000327,0.00000183,-0.00000546,-0.00000382,0.00000116,-0.0000
 0057,0.00000100,0.00000103,-0.00000058,0.00000118,-0.00000038,0.000001
 84,-0.00000104,0.00000076,0.00000029,0.00000190,0.00000225,0.00000387,
 0.00000143,0.00000046,-0.00000171,-0.00000112,0.00000016,-0.00000021,0
 .00000006,0.00000108,0.00000108,0.00000159,0.00000040,0.00000130,-0.00
 000057,-0.00000386,0.00000174,-0.00000220,0.00000068,0.00000026,-0.000
 00066,0.00000030,-0.00000077,-0.00000094,0.00000135,0.00000224,-0.0000
 0225,0.00000145,-0.00000216,0.00000102,-0.00000383,0.00000135,0.000001
 45,-0.00000152,-0.00000044,-0.00000034,-0.00000013,-0.00000116,-0.0000
 0145,0.00000091,0.00000037,-0.00000080,-0.00000131,0.00000019,-0.00000
 049,0.00000045,-0.00000201,-0.00000920,-0.00000168,0.00000623,-0.00000
 357,-0.00000299,0.00000208,0.00000067,-0.00000108,0.00000281,-0.000004
 53,0.00000167,0.00000389,0.00000017,-0.00000524,0.00000315,-0.00000849
 ,-0.00000058,-0.00000174,0.00000091,0.00816368,0.01307821,-0.00706790,
 -0.03564565,0.01211125,-0.00201598,0.00045881,-0.00389332,0.00296340,-
 0.00023652,0.00232794,-0.00182888,-0.21979509,0.07307282,-0.02606353,-
 0.00101074,0.00030274,0.00000597,-0.00110130,0.00041979,0.00008196,0.0
 0057835,0.00018636,-0.00005339,0.00023525,-0.00025114,0.00026499,0.000
 25159,-0.00070459,0.00055848,0.00014823,-0.00036782,0.00017018,0.24769
 626,-0.00008865,-0.00029797,-0.00002174,0.00001797,0.00014284,-0.00003
 548,0.00017972,0.00007020,-0.00003697,0.00007606,0.00010510,0.00009091
 ,0.00009236,-0.00014216,0.00016787,0.00002861,-0.00000990,-0.00002336,
 0.00001130,-0.00000641,0.00002150,-0.00010437,-0.00000733,-0.00023074,
 -0.00013776,0.00003985,0.00001209,-0.00007417,-0.00007207,0.00007457,0
 .00006841,-0.00002194,0.00003214,-0.00000620,0.00009369,-0.00002657,0.
 00003359,0.00004103,-0.00001836,0.00009033,-0.00000718,0.00002481,-0.0
 0000170,-0.00002391,0.00000121,-0.00012170,0.00000188,0.00001781,0.000
 03814,0.00001288,-0.00000736,0.00006548,-0.00002290,-0.00001580,-0.000
 05578,0.00000178,0.00001390,0.00001888,0.00001228,-0.00000326,-0.00002
 189,0.00000268,0.00000301,0.00001455,-0.00006416,0.00000270,-0.0001581
 3,-0.00002891,0.00000934,0.00002958,0.00007624,-0.00002855,0.00003874,
 0.00008287,-0.00008793,-0.00002241,0.00000762,0.00001530,-0.00041886,-
 0.00063215,-0.00029536,0.00001349,0.00000401,-0.00001943,0.00000903,0.
 00001717,0.00000787,-0.00000803,0.00000447,-0.00000071,-0.00000045,0.0
 0000654,0.00000013,-0.00000298,0.00000453,0.00000164,-0.00000914,0.000
 00143,0.00000966,-0.00000829,-0.00000246,-0.00000040,0.00000845,0.0000
 0151,-0.00000691,0.00000942,0.00000136,0.00000533,0.00000511,-0.000006
 67,0.00000042,-0.00001678,-0.00003215,0.00000125,0.00000270,0.00003443
 ,0.00005116,-0.00000365,0.00000760,0.00000015,0.00001000,-0.00003058,-
 0.00001029,-0.00000427,0.00000254,0.00000392,0.00000600,0.00000233,-0.
 00000134,0.00000106,-0.00000548,0.00000252,0.00000414,-0.00000709,-0.0
 0000250,-0.00002047,-0.00000898,-0.00000279,0.00001881,-0.00001126,-0.
 00000957,-0.00002029,-0.00001182,0.00000790,-0.00003004,0.00022846,-0.
 00003620,-0.00000113,-0.00000088,-0.00000349,0.00000437,-0.00000315,0.
 00000858,0.00000666,0.00000396,0.00000099,-0.00004185,0.00001950,0.000
 09986,0.00001291,-0.00014694,-0.00002110,0.00002044,-0.00014968,-0.000
 02784,-0.00000492,0.00000550,-0.00000292,0.00000822,-0.00000574,-0.000
 00441,-0.00000254,0.00000389,-0.00000032,-0.00000392,0.00000969,-0.000
 00165,0.00001302,-0.00001523,0.00000380,-0.00000277,0.00000072,0.00000
 402,0.00000110,0.00000629,0.00000101,0.00000187,-0.00000024,-0.0000003
 0,0.00000031,0.,0.00000021,0.00000219,0.00000166,0.00000196,-0.0000010
 5,-0.00000997,-0.00000735,-0.00000297,0.00000661,0.00000475,-0.0000012
 3,-0.00000189,0.00000069,-0.00000039,-0.00000005,-0.00000107,-0.000001
 02,-0.00000291,0.00000019,-0.00000391,-0.00000016,-0.00000541,-0.00000
 170,-0.00000402,-0.00000361,0.00000077,0.00000109,0.00000132,0.0000006
 4,-0.00000112,-0.00000146,0.00000058,-0.00000093,-0.00000154,-0.000003
 19,0.00000095,0.00000345,0.00000642,-0.00000346,0.00000286,-0.00000070
 ,0.00000037,-0.00000066,-0.00000030,0.00000090,0.00000073,-0.00000102,
 -0.00000003,-0.00000035,-0.00000108,0.00000167,0.00000039,0.00000574,-
 0.00000413,-0.00000427,0.00000504,0.00000165,-0.00000088,-0.00000015,0
 .00000036,0.00000016,-0.00000019,-0.00000049,-0.00000029,0.00000134,0.
 00000405,-0.00000983,-0.00000282,-0.00000090,0.00001656,-0.00000113,-0
 .00001722,0.00000377,0.00000834,-0.00000511,-0.00000022,0.00000239,-0.
 00000385,0.00000910,-0.00000144,-0.00001069,0.,0.00000630,-0.00000648,
 0.00001615,0.00000017,0.00000390,-0.00000181,0.02638918,-0.02381178,0.
 02084498,-0.01127524,0.00683671,0.00195128,-0.00178143,0.00139107,0.00
 378795,-0.00353834,-0.00040684,-0.00056388,0.08752367,-0.09171699,0.01
 396427,-0.00097156,0.00020210,-0.00042383,0.00018766,-0.00016866,0.000
 18357,0.00002441,-0.00005870,-0.00000966,0.00030635,0.00014111,-0.0001
 8608,0.00031498,-0.00008086,-0.00019573,-0.00020428,0.00025376,-0.0000
 7523,-0.09655872,0.10818778,0.00012793,0.00019167,0.00050725,0.0003042
 7,-0.00014262,-0.00051092,0.00003966,0.00004562,-0.00005908,0.00020034
 ,-0.00000632,-0.00006259,-0.00004841,0.00001132,-0.00002026,0.00008855
 ,-0.00004656,-0.00013799,0.00001948,0.00000260,0.00004370,-0.00032918,
 -0.00009228,-0.00127080,-0.00001386,0.00000566,-0.00000142,-0.00004614
 ,-0.00004964,0.00005963,0.00000605,-0.00001191,0.00004586,0.00002995,0
 .00006095,-0.00000690,0.00001186,-0.00000336,-0.00001934,0.00003008,-0
 .00003809,-0.00000333,-0.00000084,-0.00001734,0.00000220,-0.00007522,-
 0.00001930,0.00001124,-0.00001252,0.00001033,-0.00000187,0.00005242,-0
 .00001267,0.00003058,-0.00000933,0.00000104,0.00000646,-0.00000331,0.0
 0000535,-0.00000233,-0.00001005,-0.00000074,-0.00000011,-0.00021542,-0
 .00000689,0.00002836,0.00008007,-0.00000886,0.00000579,-0.00002786,-0.
 00001123,0.00000493,0.00002489,0.00006415,0.00003178,-0.00001498,0.000
 00609,0.00001144,-0.00014668,-0.00012812,-0.00010997,0.00000358,0.0000
 0307,-0.00001036,-0.00000409,0.00000564,-0.00000910,-0.00000137,0.0000
 0039,-0.00000195,-0.00000026,0.00000373,-0.00000044,-0.00000190,-0.000
 00270,-0.00000058,0.00000175,-0.00000126,-0.00000390,0.00000375,-0.000
 00234,0.00000339,0.00000502,0.00000094,-0.00000335,0.00000424,-0.00000
 068,0.00000249,0.00000312,-0.00000329,0.00000199,0.00001438,-0.0000140
 0,0.00000421,-0.00001151,-0.00002574,-0.00003433,-0.00000455,-0.000001
 53,-0.00000072,-0.00000526,0.00001772,0.00000487,-0.00000073,-0.000003
 52,0.00000102,0.00000128,0.00000093,-0.00000041,0.00000386,-0.00000107
 ,-0.00000593,0.00000178,-0.00000051,-0.00000132,0.00000030,0.00000741,
 0.00000002,0.00000232,-0.00000237,0.00000242,-0.00000263,0.00000149,-0
 .00000112,0.00000482,-0.00012295,0.00000396,0.00000208,-0.00000085,0.0
 0000601,0.00000350,-0.00000157,0.00000044,0.00000635,0.00000482,0.0000
 0179,-0.00000874,-0.00000481,0.00002835,-0.00009475,-0.00018115,0.0000
 0955,0.00002218,-0.00004040,-0.00000439,-0.00000278,0.00000149,-0.0000
 0096,0.00000393,-0.00000337,0.00000027,0.00000263,-0.00000040,0.000005
 27,-0.00000177,0.00000225,0.00000007,-0.00000270,-0.00000435,0.0000056
 4,-0.00000133,-0.00000124,-0.00000197,0.00000020,0.00000199,0.00000064
 ,0.00000084,-0.00000039,-0.00000049,-0.00000043,-0.00000120,0.00000193
 ,0.00000029,-0.00000031,-0.00000019,0.00000051,-0.00000304,-0.00000013
 ,-0.00000328,0.00000123,0.00000270,0.00000008,0.00000106,0.00000057,0.
 00000067,-0.00000056,0.00000205,0.00000063,0.00000260,0.00000059,-0.00
 000089,-0.00000197,0.00000314,0.00000508,0.00000418,0.00000203,0.00000
 193,-0.00000223,-0.00000006,0.00000041,-0.00000016,-0.00000190,-0.0000
 0069,-0.00000041,0.00000078,-0.00000057,-0.00000067,-0.00000055,0.0000
 0163,-0.00000064,0.00000140,-0.00000069,-0.00000035,0.00000058,-0.0000
 0017,0.00000035,0.00000062,0.00000003,-0.00000090,0.00000024,0.0000002
 4,0.00000147,0.00000004,0.00000157,-0.00000166,-0.00000218,-0.00000041
 ,0.00000049,0.00000040,0.00000022,0.00000062,0.00000038,-0.00000089,0.
 00000027,-0.00000076,-0.00000391,-0.00000271,-0.00000299,-0.00000014,0
 .00000125,-0.00000553,0.00000215,-0.00000144,0.00000138,-0.00000054,0.
 00000213,0.00000192,0.00000071,0.00000145,-0.00000145,-0.00000016,-0.0
 0000215,0.00000023,-0.00000308,0.00000094,-0.00000871,0.00000085,-0.00
 000009,-0.00000186,-0.01647243,0.02370095,0.00329592,0.01021820,-0.001
 41767,0.00666374,0.00232524,0.00462023,0.00435051,0.00227379,-0.001299
 64,-0.00074455,-0.03153445,0.01441030,-0.05979243,-0.00130055,0.000486
 97,-0.00045545,0.00141760,-0.00103268,0.00040911,0.00030990,0.00023515
 ,-0.00006402,0.00031790,-0.00011152,0.00013913,-0.00008563,0.00003858,
 -0.00034996,-0.00036919,-0.00005357,0.00009069,0.03288916,-0.03901489,
 0.04787928\\0.00189382,0.00140137,0.00482814,0.00000360,0.00000160,-0.
 00000240,-0.00000178,-0.00000260,0.00000242,0.00000044,-0.00000073,0.0
 0000290,0.00000084,-0.00000005,0.00000048,-0.00000134,-0.00000061,-0.0
 0000295,0.00000092,0.00000162,-0.00000080,-0.00000253,0.00000027,-0.00
 000041,0.00000018,-0.00000221,-0.00000143,-0.00000102,-0.00000004,-0.0
 0000331,-0.00000061,-0.00000109,0.00000181,0.00000002,-0.00000005,-0.0
 0000115,-0.00000093,-0.00000008,0.00000123,0.00000116,-0.00000398,-0.0
 0000283,0.00000006,0.00000248,-0.00000222,-0.00000029,-0.00000061,-0.0
 0000106,0.00000019,0.00000097,-0.00000009,-0.00000009,0.00000009,-0.00
 000024,0.00000018,0.00000148,0.00000160,-0.00000014,-0.00000033,-0.000
 00182,0.00000008,0.00000067,0.00000136,0.00000091,0.00000101,-0.000000
 49,0.00000092,0.00000110,0.00000226,-0.00000067,0.00000036,0.00000204,
 0.00000106,0.00000071,0.00000257,-0.00000154,0.00000097,-0.00000160,-0
 .00000266,-0.00000086,-0.00000183,-0.00000044,-0.00000064,-0.00000231,
 0.00000110,0.00000134,-0.00000127,-0.00000059,-0.00000005,-0.00000197,
 0.00000026,0.00000106,-0.00000051,-0.00000015,-0.00000006,-0.00000043,
 -0.00000021,-0.00000135,-0.00000183,-0.00000054,0.00000026,-0.00000206
 ,0.00000005,0.00000150,0.00000180,0.00000053,0.,0.00000196,0.00000007,
 0.00000045,0.00000065,0.00000066,0.00000191,0.00000179,0.00000035,0.00
 000050,0.00000364,0.00000064,0.00000199,0.00000251,0.00000007,0.000001
 97,0.00000339,-0.00000028,-0.00000070,-0.00000235,-0.00000003,0.000001
 17,-0.00000035,-0.00000018,0.00000008,0.00000020,0.00000045,0.00000051
 ,0.00000217,0.00000032,0.00000069,0.00000141,0.00000070,0.00000007,0.0
 0000236,0.00000014,0.00000044,0.00000246,0.00000059,-0.00000245,0.0000
 0309,-0.00000091,0.00000018,-0.00000205,0.00000003,-0.00000006,-0.0000
 0056,-0.00000112,0.00000111,-0.00000284,-0.00000018,-0.00000141,-0.000
 00139,0.00000343,0.00000146,0.00000654,-0.00000014,-0.00000193,-0.0000
 0313,-0.00000065,-0.00000093,-0.00000367,-0.00000062,0.00000010,-0.000
 00330,-0.00000038,-0.00000144,-0.00000307,-0.00000067,-0.00000075,-0.0
 0000221,-0.00000276,-0.00000037,-0.00000427,-0.00000075,0.00000187,-0.
 00000121,-0.00000055,0.00000043,-0.00000244,-0.00000017,-0.00000027,-0
 .00000170,-0.00000051,0.00000081,-0.00000160,-0.00000055,0.00000190,-0
 .00000132,-0.00000063,0.00000102,-0.00000175,-0.00000164,0.00000135,-0
 .00000250,-0.00000019,-0.00000023,-0.00000086,-0.00000020,0.00000056,-
 0.00000035,0.00000019,-0.00000063,-0.00000014,-0.00000019,-0.00000136,
 -0.00000187,0.00000010,-0.00000177,-0.00000126,-0.00000033,-0.00000149
 ,-0.00000231,-0.00000074,0.00000015,-0.00000262,-0.00000055,0.00000098
 ,-0.00000186,-0.00000072,0.00000024,-0.00000235,0.00000021,0.00000153,
 0.00000220,0.00000026,0.00000148,0.00000251,-0.00000011,0.00000199,0.0
 0000152,0.00000050,-0.00000078,0.00000156,0.00000064,-0.00000020,0.000
 00237,0.00000061,-0.00000007,0.00000213,0.00000004,0.00000075,0.000000
 95,-0.00000020,0.00000123,0.00000019,0.00000007,0.00000001,0.00000022,
 -0.00000011,0.00000207,0.00000156,-0.00000004,0.00000197,0.00000201,0.
 00000081,0.00000041,0.00000374,0.00000065,0.00000015,0.00000362,0.0000
 0003,0.00000269,0.00000315,0.00000033,0.00000182,0.00000351,0.00000055
 ,0.00000187,0.00000400,0.00000026,0.00000198,0.00000304,-0.00188707,-0
 .00139748,-0.00483164,-0.00000577,-0.00000862,0.00000116,0.00000014,0.
 00000361,-0.00000126,0.00000010,-0.00000213,-0.00000093,0.00000112,0.0
 0000107,0.00000226,-0.00000126,-0.00000399,0.00000108,0.00000111,-0.00
 001079,0.00000322,0.00000327,-0.00000141,0.00000371,0.00000054,-0.0000
 0336,-0.00000051,0.00000086,-0.00000234,-0.00000160,-0.00000036,-0.000
 00253,-0.00000241,-0.00000004,-0.00000065,-0.00000175\\\@
 The archive entry for this job was punched.


 WAR ES EIN GOTT DER DIESE ZEICHEN SCHRIEB?
          - LUDWIG BOLTZMANN, QUOTING GOETHE, ABOUT MAXWELL'S EQUATIONS.
 Job cpu time:      10 days 10 hours 19 minutes 51.8 seconds.
 Elapsed time:       0 days  2 hours 38 minutes  4.2 seconds.
 File lengths (MBytes):  RWF=  16581 Int=      0 D2E=      0 Chk=    549 Scr=      1
 Normal termination of Gaussian 16 at Fri Feb 14 06:36:09 2025.
3563796.01user 4029.42system 11:14:24elapsed 8817%CPU (0avgtext+0avgdata 64296692maxresident)k
0inputs+31294528outputs (40566major+50364111minor)pagefaults 0swaps
