 Entering Gaussian System, Link 0=g16
 Initial command:
 /common/software/install/migrated/gaussian/g16.c01.avx2/g16/l1.exe "/tmp/quach062/29231265/Gau-223142.inp" -scrdir="/tmp/quach062/29231265/"
 Entering Link 1 = /common/software/install/migrated/gaussian/g16.c01.avx2/g16/l1.exe PID=    223348.
  
 Copyright (c) 1988-2019, Gaussian, Inc.  All Rights Reserved.
  
 This is part of the Gaussian(R) 16 program.  It is based on
 the Gaussian(R) 09 system (copyright 2009, Gaussian, Inc.),
 the Gaussian(R) 03 system (copyright 2003, Gaussian, Inc.),
 the Gaussian(R) 98 system (copyright 1998, Gaussian, Inc.),
 the Gaussian(R) 94 system (copyright 1995, Gaussian, Inc.),
 the Gaussian 92(TM) system (copyright 1992, Gaussian, Inc.),
 the Gaussian 90(TM) system (copyright 1990, Gaussian, Inc.),
 the Gaussian 88(TM) system (copyright 1988, Gaussian, Inc.),
 the Gaussian 86(TM) system (copyright 1986, Carnegie Mellon
 University), and the Gaussian 82(TM) system (copyright 1983,
 Carnegie Mellon University). Gaussian is a federally registered
 trademark of Gaussian, Inc.
  
 This software contains proprietary and confidential information,
 including trade secrets, belonging to Gaussian, Inc.
  
 This software is provided under written license and may be
 used, copied, transmitted, or stored only in accord with that
 written license.
  
 The following legend is applicable only to US Government
 contracts under FAR:
  
                    RESTRICTED RIGHTS LEGEND
  
 Use, reproduction and disclosure by the US Government is
 subject to restrictions as set forth in subparagraphs (a)
 and (c) of the Commercial Computer Software - Restricted
 Rights clause in FAR 52.227-19.
  
 Gaussian, Inc.
 340 Quinnipiac St., Bldg. 40, Wallingford CT 06492
  
  
 ---------------------------------------------------------------
 Warning -- This program may not be used in any manner that
 competes with the business of Gaussian, Inc. or will provide
 assistance to any competitor of Gaussian, Inc.  The licensee
 of this program is prohibited from giving any competitor of
 Gaussian, Inc. access to this program.  By using this program,
 the user acknowledges that Gaussian, Inc. is engaged in the
 business of creating and licensing software in the field of
 computational chemistry and represents and warrants to the
 licensee that it is not a competitor of Gaussian, Inc. and that
 it will not use this program in any manner prohibited above.
 ---------------------------------------------------------------
  

 Cite this work as:
 Gaussian 16, Revision C.01,
 M. J. Frisch, G. W. Trucks, H. B. Schlegel, G. E. Scuseria, 
 M. A. Robb, J. R. Cheeseman, G. Scalmani, V. Barone, 
 G. A. Petersson, H. Nakatsuji, X. Li, M. Caricato, A. V. Marenich, 
 J. Bloino, B. G. Janesko, R. Gomperts, B. Mennucci, H. P. Hratchian, 
 J. V. Ortiz, A. F. Izmaylov, J. L. Sonnenberg, D. Williams-Young, 
 F. Ding, F. Lipparini, F. Egidi, J. Goings, B. Peng, A. Petrone, 
 T. Henderson, D. Ranasinghe, V. G. Zakrzewski, J. Gao, N. Rega, 
 G. Zheng, W. Liang, M. Hada, M. Ehara, K. Toyota, R. Fukuda, 
 J. Hasegawa, M. Ishida, T. Nakajima, Y. Honda, O. Kitao, H. Nakai, 
 T. Vreven, K. Throssell, J. A. Montgomery, Jr., J. E. Peralta, 
 F. Ogliaro, M. J. Bearpark, J. J. Heyd, E. N. Brothers, K. N. Kudin, 
 V. N. Staroverov, T. A. Keith, R. Kobayashi, J. Normand, 
 K. Raghavachari, A. P. Rendell, J. C. Burant, S. S. Iyengar, 
 J. Tomasi, M. Cossi, J. M. Millam, M. Klene, C. Adamo, R. Cammi, 
 J. W. Ochterski, R. L. Martin, K. Morokuma, O. Farkas, 
 J. B. Foresman, and D. J. Fox, Gaussian, Inc., Wallingford CT, 2019.
 
 ******************************************
 Gaussian 16:  ES64L-G16RevC.01  3-Jul-2019
                 8-Jan-2025 
 ******************************************
 %chk=CoIR_S_1_2.chk
 %lindaworkers=in-cn0088
 %nprocshared=128
 Will use up to  128 processors via shared memory.
 %mem=59800MB
 SetLPE:  input flags=" -workerwait 900 -opt "Tsnet.Node.lindarsharg: ssh " "
 SetLPE:    new flags=" -workerwait 900 -opt "Tsnet.Node.lindarsharg: ssh " -opt 'Tsnet.Node.lindarsharg: ssh'  -nodelist 'in-cn0088' -env GAUSS_MDEF=7838105600 -env GAUSS_EXEDIR="/common/software/install/migrated/gaussian/g16.c01.avx2/g16/bsd:/common/software/install/migrated/gaussian/g16.c01.avx2/g16/local:/common/software/install/migrated/gaussian/g16.c01.avx2/g16/extras:/common/software/install/migrated/gaussian/g16.c01.avx2/g16""
 Will use up to    1 processors via Linda.
 ----------------------------------------------------------------------
 # opt=calcfc # freq # m06l/genecp/auto # nosymm integral=grid=ultrafin
 e # scf=(tight,intrep,xqc) # SCRF=(SMD,Solvent=n,n-DiMethylFormamide)
 ----------------------------------------------------------------------
 1/10=4,18=20,19=15,26=6,38=1/1,3;
 2/9=110,12=2,15=1,17=6,18=5,40=1/2;
 3/5=7,11=2,16=1,17=8,25=1,30=1,70=32201,71=2,72=148,74=-53,75=-5,82=28,140=1/1,2,3;
 4//1;
 5/5=2,8=3,13=1,17=20,32=2,38=5,53=148/2,8;
 8/6=4,10=90,11=11/1;
 11/6=1,8=1,9=11,15=111,16=1,31=1/1,2,10;
 10/6=1,13=1,31=1/2;
 6/7=2,8=2,9=2,10=2,28=1/1;
 7/10=1,25=1,30=1/1,2,3,16;
 1/10=4,18=20,19=15,26=6/3(2);
 2/9=110,15=1/2;
 99//99;
 2/9=110,15=1/2;
 3/5=7,6=1,11=2,16=1,17=8,25=1,30=1,70=32205,71=1,72=148,74=-53,75=-5,82=7/1,2,3;
 4/5=5,16=3,69=1/1;
 5/5=2,8=3,13=1,17=20,32=2,38=5,53=148/2,8;
 7/30=1/1,2,3,16;
 1/18=20,19=15,26=6/3(-5);
 2/9=110,15=1/2;
 6/7=2,8=2,9=2,10=2,19=2,28=1/1;
 99/9=1/99;
 -------------------
 Input: CoII_Q_1.out
 -------------------
 Symbolic Z-matrix:
 Charge = -1 Multiplicity = 1
 Co                   -0.23677  -0.55769  -3.84078 
 O                     1.01196  -1.99971  -3.81984 
 O                    -1.584    -1.85202  -3.42355 
 N                     1.07381   0.72406  -4.2598 
 N                    -1.4038    0.91526  -3.60311 
 C                     3.05334  -3.17961  -3.94772 
 C                    -3.74556  -2.79254  -3.27157 
 C                     2.28628  -1.96609  -4.05387 
 C                    -2.86366  -1.66174  -3.33244 
 C                     2.98614  -0.76714  -4.40738 
 C                    -3.45708  -0.35548  -3.3146 
 C                     5.10517  -1.96117  -4.61812 
 C                    -5.71042  -1.28914  -3.15223 
 C                     2.37645  -4.48054  -3.50107 
 C                    -3.18036  -4.21397  -3.38618 
 C                     4.40601  -3.13065  -4.23874 
 C                    -5.11413  -2.56576  -3.18411 
 C                     4.37324  -0.79619  -4.68226 
 C                    -4.85465  -0.20666  -3.21628 
 C                     6.60002  -2.04484  -4.92207 
 C                    -7.22508  -1.07647  -3.10007 
 C                     2.33403   0.50243  -4.47899 
 C                    -2.68119   0.84676  -3.39106 
 C                     0.53127   2.07886  -4.43661 
 C                    -0.66421   2.19688  -3.4892 
 C                     1.23856  -4.85998  -4.4608 
 C                     1.812    -4.3067   -2.08208 
 C                     3.35622  -5.65477  -3.46435 
 C                    -2.14081  -4.49172  -2.28963 
 C                    -4.27066  -5.28002  -3.26101 
 C                    -2.52689  -4.38253  -4.76754 
 C                     7.18278  -0.6845   -5.29914 
 C                     7.34916  -2.56772  -3.68895 
 C                     6.83159  -3.01229  -6.09072 
 C                    -7.67647  -0.3632   -4.3826 
 C                    -7.58661  -0.20216  -1.89278 
 C                    -7.99221  -2.39293  -2.98625 
 C                     0.12007   2.27924  -5.89477 
 C                    -1.46104   3.46987  -3.74195 
 C                    -0.65997   3.56829  -6.10702 
 C                    -1.88156   3.61707  -5.198 
 H                     4.97842  -4.05025  -4.16916 
 H                    -5.76743  -3.42868  -3.14723 
 H                     4.84485   0.14563  -4.95017 
 H                    -5.25028   0.80802  -3.21015 
 H                     2.96511   1.35942  -4.73708 
 H                    -3.24048   1.77401  -3.24497 
 H                     1.2879    2.82312  -4.1547 
 H                    -0.2747    2.21544  -2.46231 
 H                     0.7799   -5.80333  -4.14319 
 H                     0.46718  -4.0908   -4.48545 
 H                     1.61647  -5.00427  -5.47913 
 H                     2.61349  -4.09004  -1.36746 
 H                     1.08369  -3.49582  -2.03848 
 H                     1.31833  -5.22877  -1.75492 
 H                     2.82826  -6.55582  -3.13721 
 H                     3.78646  -5.86732  -4.44844 
 H                     4.18114  -5.48819  -2.76431 
 H                    -1.78     -5.52355  -2.36887 
 H                    -1.28644  -3.82021  -2.36991 
 H                    -2.58119  -4.37392  -1.29322 
 H                    -3.81625  -6.27238  -3.34077 
 H                    -4.78784  -5.2328   -2.29708 
 H                    -5.02355  -5.20374  -4.0518 
 H                    -3.26635  -4.24891  -5.56549 
 H                    -1.72061  -3.66226  -4.91852 
 H                    -2.10817  -5.3901   -4.87168 
 H                     8.25197  -0.78294  -5.51031 
 H                     6.70808  -0.26954  -6.19381 
 H                     7.07343   0.04586  -4.49125 
 H                     8.42269  -2.6422   -3.89314 
 H                     7.21728  -1.89885  -2.83226 
 H                     7.00134  -3.56179  -3.39264 
 H                     6.46289  -4.0174   -5.86518 
 H                     6.32422  -2.66671  -6.99725 
 H                     7.90018  -3.09607  -6.31634 
 H                    -8.75968  -0.19883  -4.37443 
 H                    -7.19504   0.6136   -4.49038 
 H                    -7.43477  -0.955    -5.27202 
 H                    -7.28902  -0.68021  -0.95388 
 H                    -7.09788   0.7754   -1.93885 
 H                    -8.66732  -0.02843  -1.85168 
 H                    -9.06677  -2.1921   -2.93648 
 H                    -7.82203  -3.04523  -3.84842 
 H                    -7.71999  -2.94995  -2.08412 
 H                    -0.4913    1.4181   -6.18624 
 H                     1.01832   2.24917  -6.52159 
 H                    -0.80899   4.30844  -3.46789 
 H                    -2.31664   3.53086  -3.06335 
 H                    -0.95472   3.65263  -7.15851 
 H                    -0.01771   4.43424  -5.89478 
 H                    -2.43107   4.5537   -5.33471 
 H                    -2.57404   2.80755  -5.46983 
 O                    -0.94253  -0.86705  -6.39393 
 N                    -3.0338   -0.18168  -7.05847 
 C                    -2.5878    0.86037  -7.95863 
 C                    -4.46238  -0.33195  -6.87878 
 C                    -2.16928  -0.96596  -6.38617 
 H                    -2.86756   1.84988  -7.58313 
 H                    -3.05181   0.72426  -8.94036 
 H                    -1.50519   0.80738  -8.06339 
 H                    -4.88976   0.57327  -6.43202 
 H                    -4.66213  -1.17712  -6.21669 
 H                    -4.95666  -0.50852  -7.8394 
 H                    -2.69291  -1.74349  -5.80663 
 
 Add virtual bond connecting atoms O94        and H86        Dist= 4.42D+00.
 Add virtual bond connecting atoms H99        and H93        Dist= 4.42D+00.
 Add virtual bond connecting atoms H101       and H86        Dist= 4.19D+00.
 Add virtual bond connecting atoms H105       and H66        Dist= 4.40D+00.

 GradGradGradGradGradGradGradGradGradGradGradGradGradGradGradGradGradGrad
 Berny optimization.
 Initialization pass.
                           ----------------------------
                           !    Initial Parameters    !
                           ! (Angstroms and Degrees)  !
 --------------------------                            --------------------------
 ! Name  Definition              Value          Derivative Info.                !
 --------------------------------------------------------------------------------
 ! R1    R(1,2)                  1.9077         calculate D2E/DX2 analytically  !
 ! R2    R(1,3)                  1.9143         calculate D2E/DX2 analytically  !
 ! R3    R(1,4)                  1.8804         calculate D2E/DX2 analytically  !
 ! R4    R(1,5)                  1.8942         calculate D2E/DX2 analytically  !
 ! R5    R(2,8)                  1.2961         calculate D2E/DX2 analytically  !
 ! R6    R(3,9)                  1.2969         calculate D2E/DX2 analytically  !
 ! R7    R(4,22)                 1.2982         calculate D2E/DX2 analytically  !
 ! R8    R(4,24)                 1.4701         calculate D2E/DX2 analytically  !
 ! R9    R(5,23)                 1.2967         calculate D2E/DX2 analytically  !
 ! R10   R(5,25)                 1.4841         calculate D2E/DX2 analytically  !
 ! R11   R(6,8)                  1.4395         calculate D2E/DX2 analytically  !
 ! R12   R(6,14)                 1.533          calculate D2E/DX2 analytically  !
 ! R13   R(6,16)                 1.3845         calculate D2E/DX2 analytically  !
 ! R14   R(7,9)                  1.4353         calculate D2E/DX2 analytically  !
 ! R15   R(7,15)                 1.534          calculate D2E/DX2 analytically  !
 ! R16   R(7,17)                 1.39           calculate D2E/DX2 analytically  !
 ! R17   R(8,10)                 1.4326         calculate D2E/DX2 analytically  !
 ! R18   R(9,11)                 1.4348         calculate D2E/DX2 analytically  !
 ! R19   R(10,18)                1.4144         calculate D2E/DX2 analytically  !
 ! R20   R(10,22)                1.429          calculate D2E/DX2 analytically  !
 ! R21   R(11,19)                1.4089         calculate D2E/DX2 analytically  !
 ! R22   R(11,23)                1.4329         calculate D2E/DX2 analytically  !
 ! R23   R(12,16)                1.4144         calculate D2E/DX2 analytically  !
 ! R24   R(12,18)                1.3773         calculate D2E/DX2 analytically  !
 ! R25   R(12,20)                1.5277         calculate D2E/DX2 analytically  !
 ! R26   R(13,17)                1.4094         calculate D2E/DX2 analytically  !
 ! R27   R(13,19)                1.3814         calculate D2E/DX2 analytically  !
 ! R28   R(13,21)                1.5304         calculate D2E/DX2 analytically  !
 ! R29   R(14,26)                1.5362         calculate D2E/DX2 analytically  !
 ! R30   R(14,27)                1.537          calculate D2E/DX2 analytically  !
 ! R31   R(14,28)                1.5297         calculate D2E/DX2 analytically  !
 ! R32   R(15,29)                1.5363         calculate D2E/DX2 analytically  !
 ! R33   R(15,30)                1.53           calculate D2E/DX2 analytically  !
 ! R34   R(15,31)                1.5374         calculate D2E/DX2 analytically  !
 ! R35   R(16,42)                1.0854         calculate D2E/DX2 analytically  !
 ! R36   R(17,43)                1.083          calculate D2E/DX2 analytically  !
 ! R37   R(18,44)                1.0868         calculate D2E/DX2 analytically  !
 ! R38   R(19,45)                1.0891         calculate D2E/DX2 analytically  !
 ! R39   R(20,32)                1.5272         calculate D2E/DX2 analytically  !
 ! R40   R(20,33)                1.5347         calculate D2E/DX2 analytically  !
 ! R41   R(20,34)                1.5347         calculate D2E/DX2 analytically  !
 ! R42   R(21,35)                1.5354         calculate D2E/DX2 analytically  !
 ! R43   R(21,36)                1.5338         calculate D2E/DX2 analytically  !
 ! R44   R(21,37)                1.5279         calculate D2E/DX2 analytically  !
 ! R45   R(22,46)                1.0951         calculate D2E/DX2 analytically  !
 ! R46   R(23,47)                1.0927         calculate D2E/DX2 analytically  !
 ! R47   R(24,25)                1.5299         calculate D2E/DX2 analytically  !
 ! R48   R(24,38)                1.5282         calculate D2E/DX2 analytically  !
 ! R49   R(24,48)                1.0981         calculate D2E/DX2 analytically  !
 ! R50   R(25,39)                1.5229         calculate D2E/DX2 analytically  !
 ! R51   R(25,49)                1.0984         calculate D2E/DX2 analytically  !
 ! R52   R(26,50)                1.096          calculate D2E/DX2 analytically  !
 ! R53   R(26,51)                1.0896         calculate D2E/DX2 analytically  !
 ! R54   R(26,52)                1.0957         calculate D2E/DX2 analytically  !
 ! R55   R(27,53)                1.0954         calculate D2E/DX2 analytically  !
 ! R56   R(27,54)                1.0908         calculate D2E/DX2 analytically  !
 ! R57   R(27,55)                1.0959         calculate D2E/DX2 analytically  !
 ! R58   R(28,56)                1.0944         calculate D2E/DX2 analytically  !
 ! R59   R(28,57)                1.0949         calculate D2E/DX2 analytically  !
 ! R60   R(28,58)                1.0947         calculate D2E/DX2 analytically  !
 ! R61   R(29,59)                1.096          calculate D2E/DX2 analytically  !
 ! R62   R(29,60)                1.0896         calculate D2E/DX2 analytically  !
 ! R63   R(29,61)                1.0957         calculate D2E/DX2 analytically  !
 ! R64   R(30,62)                1.0944         calculate D2E/DX2 analytically  !
 ! R65   R(30,63)                1.0949         calculate D2E/DX2 analytically  !
 ! R66   R(30,64)                1.0945         calculate D2E/DX2 analytically  !
 ! R67   R(31,65)                1.0961         calculate D2E/DX2 analytically  !
 ! R68   R(31,66)                1.0916         calculate D2E/DX2 analytically  !
 ! R69   R(31,67)                1.0961         calculate D2E/DX2 analytically  !
 ! R70   R(32,68)                1.0943         calculate D2E/DX2 analytically  !
 ! R71   R(32,69)                1.0945         calculate D2E/DX2 analytically  !
 ! R72   R(32,70)                1.0946         calculate D2E/DX2 analytically  !
 ! R73   R(33,71)                1.0953         calculate D2E/DX2 analytically  !
 ! R74   R(33,72)                1.0948         calculate D2E/DX2 analytically  !
 ! R75   R(33,73)                1.094          calculate D2E/DX2 analytically  !
 ! R76   R(34,74)                1.0941         calculate D2E/DX2 analytically  !
 ! R77   R(34,75)                1.0948         calculate D2E/DX2 analytically  !
 ! R78   R(34,76)                1.0954         calculate D2E/DX2 analytically  !
 ! R79   R(35,77)                1.0956         calculate D2E/DX2 analytically  !
 ! R80   R(35,78)                1.0943         calculate D2E/DX2 analytically  !
 ! R81   R(35,79)                1.0953         calculate D2E/DX2 analytically  !
 ! R82   R(36,80)                1.0948         calculate D2E/DX2 analytically  !
 ! R83   R(36,81)                1.0939         calculate D2E/DX2 analytically  !
 ! R84   R(36,82)                1.0954         calculate D2E/DX2 analytically  !
 ! R85   R(37,83)                1.0943         calculate D2E/DX2 analytically  !
 ! R86   R(37,84)                1.0944         calculate D2E/DX2 analytically  !
 ! R87   R(37,85)                1.0946         calculate D2E/DX2 analytically  !
 ! R88   R(38,40)                1.5216         calculate D2E/DX2 analytically  !
 ! R89   R(38,86)                1.0956         calculate D2E/DX2 analytically  !
 ! R90   R(38,87)                1.0957         calculate D2E/DX2 analytically  !
 ! R91   R(39,41)                1.5227         calculate D2E/DX2 analytically  !
 ! R92   R(39,88)                1.097          calculate D2E/DX2 analytically  !
 ! R93   R(39,89)                1.0937         calculate D2E/DX2 analytically  !
 ! R94   R(40,41)                1.5235         calculate D2E/DX2 analytically  !
 ! R95   R(40,90)                1.0953         calculate D2E/DX2 analytically  !
 ! R96   R(40,91)                1.0988         calculate D2E/DX2 analytically  !
 ! R97   R(41,92)                1.0945         calculate D2E/DX2 analytically  !
 ! R98   R(41,93)                1.0994         calculate D2E/DX2 analytically  !
 ! R99   R(66,105)               2.3272         calculate D2E/DX2 analytically  !
 ! R100  R(86,94)                2.3385         calculate D2E/DX2 analytically  !
 ! R101  R(86,101)               2.2192         calculate D2E/DX2 analytically  !
 ! R102  R(93,99)                2.3387         calculate D2E/DX2 analytically  !
 ! R103  R(94,98)                1.2308         calculate D2E/DX2 analytically  !
 ! R104  R(95,96)                1.4474         calculate D2E/DX2 analytically  !
 ! R105  R(95,97)                1.4477         calculate D2E/DX2 analytically  !
 ! R106  R(95,98)                1.347          calculate D2E/DX2 analytically  !
 ! R107  R(96,99)                1.0947         calculate D2E/DX2 analytically  !
 ! R108  R(96,100)               1.0944         calculate D2E/DX2 analytically  !
 ! R109  R(96,101)               1.089          calculate D2E/DX2 analytically  !
 ! R110  R(97,102)               1.0962         calculate D2E/DX2 analytically  !
 ! R111  R(97,103)               1.092          calculate D2E/DX2 analytically  !
 ! R112  R(97,104)               1.0947         calculate D2E/DX2 analytically  !
 ! R113  R(98,105)               1.1021         calculate D2E/DX2 analytically  !
 ! A1    A(2,1,3)               86.9724         calculate D2E/DX2 analytically  !
 ! A2    A(2,1,4)               93.5247         calculate D2E/DX2 analytically  !
 ! A3    A(3,1,5)               93.7168         calculate D2E/DX2 analytically  !
 ! A4    A(4,1,5)               85.8322         calculate D2E/DX2 analytically  !
 ! A5    A(1,2,8)              128.463          calculate D2E/DX2 analytically  !
 ! A6    A(1,3,9)              127.627          calculate D2E/DX2 analytically  !
 ! A7    A(1,4,22)             126.7137         calculate D2E/DX2 analytically  !
 ! A8    A(1,4,24)             113.4384         calculate D2E/DX2 analytically  !
 ! A9    A(22,4,24)            119.6887         calculate D2E/DX2 analytically  !
 ! A10   A(1,5,23)             125.9005         calculate D2E/DX2 analytically  !
 ! A11   A(1,5,25)             111.9699         calculate D2E/DX2 analytically  !
 ! A12   A(23,5,25)            121.6008         calculate D2E/DX2 analytically  !
 ! A13   A(8,6,14)             120.105          calculate D2E/DX2 analytically  !
 ! A14   A(8,6,16)             118.3783         calculate D2E/DX2 analytically  !
 ! A15   A(14,6,16)            121.5102         calculate D2E/DX2 analytically  !
 ! A16   A(9,7,15)             120.032          calculate D2E/DX2 analytically  !
 ! A17   A(9,7,17)             118.6254         calculate D2E/DX2 analytically  !
 ! A18   A(15,7,17)            121.243          calculate D2E/DX2 analytically  !
 ! A19   A(2,8,6)              119.2568         calculate D2E/DX2 analytically  !
 ! A20   A(2,8,10)             123.1342         calculate D2E/DX2 analytically  !
 ! A21   A(6,8,10)             117.607          calculate D2E/DX2 analytically  !
 ! A22   A(3,9,7)              119.5792         calculate D2E/DX2 analytically  !
 ! A23   A(3,9,11)             122.8549         calculate D2E/DX2 analytically  !
 ! A24   A(7,9,11)             117.5547         calculate D2E/DX2 analytically  !
 ! A25   A(8,10,18)            120.6557         calculate D2E/DX2 analytically  !
 ! A26   A(8,10,22)            122.2055         calculate D2E/DX2 analytically  !
 ! A27   A(18,10,22)           117.1319         calculate D2E/DX2 analytically  !
 ! A28   A(9,11,19)            120.4827         calculate D2E/DX2 analytically  !
 ! A29   A(9,11,23)            122.6304         calculate D2E/DX2 analytically  !
 ! A30   A(19,11,23)           116.8868         calculate D2E/DX2 analytically  !
 ! A31   A(16,12,18)           116.6912         calculate D2E/DX2 analytically  !
 ! A32   A(16,12,20)           119.4568         calculate D2E/DX2 analytically  !
 ! A33   A(18,12,20)           123.851          calculate D2E/DX2 analytically  !
 ! A34   A(17,13,19)           116.5292         calculate D2E/DX2 analytically  !
 ! A35   A(17,13,21)           123.0504         calculate D2E/DX2 analytically  !
 ! A36   A(19,13,21)           120.3859         calculate D2E/DX2 analytically  !
 ! A37   A(6,14,26)            110.772          calculate D2E/DX2 analytically  !
 ! A38   A(6,14,27)            109.582          calculate D2E/DX2 analytically  !
 ! A39   A(6,14,28)            112.0607         calculate D2E/DX2 analytically  !
 ! A40   A(26,14,27)           109.4327         calculate D2E/DX2 analytically  !
 ! A41   A(26,14,28)           107.4465         calculate D2E/DX2 analytically  !
 ! A42   A(27,14,28)           107.45           calculate D2E/DX2 analytically  !
 ! A43   A(7,15,29)            111.316          calculate D2E/DX2 analytically  !
 ! A44   A(7,15,30)            112.146          calculate D2E/DX2 analytically  !
 ! A45   A(7,15,31)            108.9863         calculate D2E/DX2 analytically  !
 ! A46   A(29,15,30)           107.3274         calculate D2E/DX2 analytically  !
 ! A47   A(29,15,31)           109.5051         calculate D2E/DX2 analytically  !
 ! A48   A(30,15,31)           107.4583         calculate D2E/DX2 analytically  !
 ! A49   A(6,16,12)            124.6517         calculate D2E/DX2 analytically  !
 ! A50   A(6,16,42)            118.1519         calculate D2E/DX2 analytically  !
 ! A51   A(12,16,42)           117.1959         calculate D2E/DX2 analytically  !
 ! A52   A(7,17,13)            124.4567         calculate D2E/DX2 analytically  !
 ! A53   A(7,17,43)            117.7813         calculate D2E/DX2 analytically  !
 ! A54   A(13,17,43)           117.7595         calculate D2E/DX2 analytically  !
 ! A55   A(10,18,12)           121.9712         calculate D2E/DX2 analytically  !
 ! A56   A(10,18,44)           117.1076         calculate D2E/DX2 analytically  !
 ! A57   A(12,18,44)           120.9212         calculate D2E/DX2 analytically  !
 ! A58   A(11,19,13)           122.343          calculate D2E/DX2 analytically  !
 ! A59   A(11,19,45)           117.3321         calculate D2E/DX2 analytically  !
 ! A60   A(13,19,45)           120.3158         calculate D2E/DX2 analytically  !
 ! A61   A(12,20,32)           111.9452         calculate D2E/DX2 analytically  !
 ! A62   A(12,20,33)           109.6598         calculate D2E/DX2 analytically  !
 ! A63   A(12,20,34)           109.4914         calculate D2E/DX2 analytically  !
 ! A64   A(32,20,33)           108.3975         calculate D2E/DX2 analytically  !
 ! A65   A(32,20,34)           108.4162         calculate D2E/DX2 analytically  !
 ! A66   A(33,20,34)           108.87           calculate D2E/DX2 analytically  !
 ! A67   A(13,21,35)           109.0898         calculate D2E/DX2 analytically  !
 ! A68   A(13,21,36)           109.8347         calculate D2E/DX2 analytically  !
 ! A69   A(13,21,37)           112.3164         calculate D2E/DX2 analytically  !
 ! A70   A(35,21,36)           108.8678         calculate D2E/DX2 analytically  !
 ! A71   A(35,21,37)           108.3541         calculate D2E/DX2 analytically  !
 ! A72   A(36,21,37)           108.3098         calculate D2E/DX2 analytically  !
 ! A73   A(4,22,10)            125.8869         calculate D2E/DX2 analytically  !
 ! A74   A(4,22,46)            117.7493         calculate D2E/DX2 analytically  !
 ! A75   A(10,22,46)           116.3628         calculate D2E/DX2 analytically  !
 ! A76   A(5,23,11)            125.9073         calculate D2E/DX2 analytically  !
 ! A77   A(5,23,47)            118.7688         calculate D2E/DX2 analytically  !
 ! A78   A(11,23,47)           115.3215         calculate D2E/DX2 analytically  !
 ! A79   A(4,24,25)            106.5583         calculate D2E/DX2 analytically  !
 ! A80   A(4,24,38)            109.5666         calculate D2E/DX2 analytically  !
 ! A81   A(4,24,48)            109.8431         calculate D2E/DX2 analytically  !
 ! A82   A(25,24,38)           111.7462         calculate D2E/DX2 analytically  !
 ! A83   A(25,24,48)           109.0953         calculate D2E/DX2 analytically  !
 ! A84   A(38,24,48)           109.9668         calculate D2E/DX2 analytically  !
 ! A85   A(5,25,24)            105.9771         calculate D2E/DX2 analytically  !
 ! A86   A(5,25,39)            116.6388         calculate D2E/DX2 analytically  !
 ! A87   A(5,25,49)            105.2518         calculate D2E/DX2 analytically  !
 ! A88   A(24,25,39)           111.7493         calculate D2E/DX2 analytically  !
 ! A89   A(24,25,49)           107.6458         calculate D2E/DX2 analytically  !
 ! A90   A(39,25,49)           109.0608         calculate D2E/DX2 analytically  !
 ! A91   A(14,26,50)           109.971          calculate D2E/DX2 analytically  !
 ! A92   A(14,26,51)           111.3558         calculate D2E/DX2 analytically  !
 ! A93   A(14,26,52)           110.9579         calculate D2E/DX2 analytically  !
 ! A94   A(50,26,51)           108.5358         calculate D2E/DX2 analytically  !
 ! A95   A(50,26,52)           107.4765         calculate D2E/DX2 analytically  !
 ! A96   A(51,26,52)           108.4266         calculate D2E/DX2 analytically  !
 ! A97   A(14,27,53)           110.8513         calculate D2E/DX2 analytically  !
 ! A98   A(14,27,54)           111.48           calculate D2E/DX2 analytically  !
 ! A99   A(14,27,55)           110.2352         calculate D2E/DX2 analytically  !
 ! A100  A(53,27,54)           108.3862         calculate D2E/DX2 analytically  !
 ! A101  A(53,27,55)           107.5328         calculate D2E/DX2 analytically  !
 ! A102  A(54,27,55)           108.2264         calculate D2E/DX2 analytically  !
 ! A103  A(14,28,56)           109.2803         calculate D2E/DX2 analytically  !
 ! A104  A(14,28,57)           112.2799         calculate D2E/DX2 analytically  !
 ! A105  A(14,28,58)           112.4077         calculate D2E/DX2 analytically  !
 ! A106  A(56,28,57)           107.3634         calculate D2E/DX2 analytically  !
 ! A107  A(56,28,58)           107.3178         calculate D2E/DX2 analytically  !
 ! A108  A(57,28,58)           107.9512         calculate D2E/DX2 analytically  !
 ! A109  A(15,29,59)           109.96           calculate D2E/DX2 analytically  !
 ! A110  A(15,29,60)           111.503          calculate D2E/DX2 analytically  !
 ! A111  A(15,29,61)           110.9578         calculate D2E/DX2 analytically  !
 ! A112  A(59,29,60)           108.4659         calculate D2E/DX2 analytically  !
 ! A113  A(59,29,61)           107.414          calculate D2E/DX2 analytically  !
 ! A114  A(60,29,61)           108.4136         calculate D2E/DX2 analytically  !
 ! A115  A(15,30,62)           109.2666         calculate D2E/DX2 analytically  !
 ! A116  A(15,30,63)           112.2453         calculate D2E/DX2 analytically  !
 ! A117  A(15,30,64)           112.4894         calculate D2E/DX2 analytically  !
 ! A118  A(62,30,63)           107.4216         calculate D2E/DX2 analytically  !
 ! A119  A(62,30,64)           107.2271         calculate D2E/DX2 analytically  !
 ! A120  A(63,30,64)           107.947          calculate D2E/DX2 analytically  !
 ! A121  A(15,31,65)           110.7322         calculate D2E/DX2 analytically  !
 ! A122  A(15,31,66)           111.4615         calculate D2E/DX2 analytically  !
 ! A123  A(15,31,67)           110.3976         calculate D2E/DX2 analytically  !
 ! A124  A(65,31,66)           108.4915         calculate D2E/DX2 analytically  !
 ! A125  A(65,31,67)           107.4949         calculate D2E/DX2 analytically  !
 ! A126  A(66,31,67)           108.1329         calculate D2E/DX2 analytically  !
 ! A127  A(20,32,68)           109.899          calculate D2E/DX2 analytically  !
 ! A128  A(20,32,69)           111.9642         calculate D2E/DX2 analytically  !
 ! A129  A(20,32,70)           111.9624         calculate D2E/DX2 analytically  !
 ! A130  A(68,32,69)           107.4651         calculate D2E/DX2 analytically  !
 ! A131  A(68,32,70)           107.4622         calculate D2E/DX2 analytically  !
 ! A132  A(69,32,70)           107.8795         calculate D2E/DX2 analytically  !
 ! A133  A(20,33,71)           110.5979         calculate D2E/DX2 analytically  !
 ! A134  A(20,33,72)           111.2094         calculate D2E/DX2 analytically  !
 ! A135  A(20,33,73)           111.8394         calculate D2E/DX2 analytically  !
 ! A136  A(71,33,72)           107.7866         calculate D2E/DX2 analytically  !
 ! A137  A(71,33,73)           107.4757         calculate D2E/DX2 analytically  !
 ! A138  A(72,33,73)           107.7509         calculate D2E/DX2 analytically  !
 ! A139  A(20,34,74)           111.7949         calculate D2E/DX2 analytically  !
 ! A140  A(20,34,75)           111.199          calculate D2E/DX2 analytically  !
 ! A141  A(20,34,76)           110.6259         calculate D2E/DX2 analytically  !
 ! A142  A(74,34,75)           107.7282         calculate D2E/DX2 analytically  !
 ! A143  A(74,34,76)           107.5146         calculate D2E/DX2 analytically  !
 ! A144  A(75,34,76)           107.7996         calculate D2E/DX2 analytically  !
 ! A145  A(21,35,77)           110.7396         calculate D2E/DX2 analytically  !
 ! A146  A(21,35,78)           111.5676         calculate D2E/DX2 analytically  !
 ! A147  A(21,35,79)           111.2492         calculate D2E/DX2 analytically  !
 ! A148  A(77,35,78)           107.5637         calculate D2E/DX2 analytically  !
 ! A149  A(77,35,79)           107.7748         calculate D2E/DX2 analytically  !
 ! A150  A(78,35,79)           107.7717         calculate D2E/DX2 analytically  !
 ! A151  A(21,36,80)           111.2264         calculate D2E/DX2 analytically  !
 ! A152  A(21,36,81)           111.7737         calculate D2E/DX2 analytically  !
 ! A153  A(21,36,82)           110.6395         calculate D2E/DX2 analytically  !
 ! A154  A(80,36,81)           107.7509         calculate D2E/DX2 analytically  !
 ! A155  A(80,36,82)           107.774          calculate D2E/DX2 analytically  !
 ! A156  A(81,36,82)           107.4962         calculate D2E/DX2 analytically  !
 ! A157  A(21,37,83)           109.772          calculate D2E/DX2 analytically  !
 ! A158  A(21,37,84)           112.1343         calculate D2E/DX2 analytically  !
 ! A159  A(21,37,85)           112.0232         calculate D2E/DX2 analytically  !
 ! A160  A(83,37,84)           107.3315         calculate D2E/DX2 analytically  !
 ! A161  A(83,37,85)           107.4639         calculate D2E/DX2 analytically  !
 ! A162  A(84,37,85)           107.8953         calculate D2E/DX2 analytically  !
 ! A163  A(24,38,40)           112.4652         calculate D2E/DX2 analytically  !
 ! A164  A(24,38,86)           107.5133         calculate D2E/DX2 analytically  !
 ! A165  A(24,38,87)           108.7629         calculate D2E/DX2 analytically  !
 ! A166  A(40,38,86)           110.0423         calculate D2E/DX2 analytically  !
 ! A167  A(40,38,87)           111.3282         calculate D2E/DX2 analytically  !
 ! A168  A(86,38,87)           106.4806         calculate D2E/DX2 analytically  !
 ! A169  A(25,39,41)           112.5823         calculate D2E/DX2 analytically  !
 ! A170  A(25,39,88)           106.6487         calculate D2E/DX2 analytically  !
 ! A171  A(25,39,89)           110.6673         calculate D2E/DX2 analytically  !
 ! A172  A(41,39,88)           109.2162         calculate D2E/DX2 analytically  !
 ! A173  A(41,39,89)           111.8298         calculate D2E/DX2 analytically  !
 ! A174  A(88,39,89)           105.5057         calculate D2E/DX2 analytically  !
 ! A175  A(38,40,41)           110.7913         calculate D2E/DX2 analytically  !
 ! A176  A(38,40,90)           109.701          calculate D2E/DX2 analytically  !
 ! A177  A(38,40,91)           109.9407         calculate D2E/DX2 analytically  !
 ! A178  A(41,40,90)           110.7673         calculate D2E/DX2 analytically  !
 ! A179  A(41,40,91)           109.1594         calculate D2E/DX2 analytically  !
 ! A180  A(90,40,91)           106.3823         calculate D2E/DX2 analytically  !
 ! A181  A(39,41,40)           110.2441         calculate D2E/DX2 analytically  !
 ! A182  A(39,41,92)           109.9277         calculate D2E/DX2 analytically  !
 ! A183  A(39,41,93)           109.8276         calculate D2E/DX2 analytically  !
 ! A184  A(40,41,92)           110.8206         calculate D2E/DX2 analytically  !
 ! A185  A(40,41,93)           109.508          calculate D2E/DX2 analytically  !
 ! A186  A(92,41,93)           106.4392         calculate D2E/DX2 analytically  !
 ! A187  A(31,66,105)          106.7505         calculate D2E/DX2 analytically  !
 ! A188  A(38,86,94)           154.0773         calculate D2E/DX2 analytically  !
 ! A189  A(38,86,101)          134.1314         calculate D2E/DX2 analytically  !
 ! A190  A(94,86,101)           64.3925         calculate D2E/DX2 analytically  !
 ! A191  A(41,93,99)           127.1562         calculate D2E/DX2 analytically  !
 ! A192  A(86,94,98)           105.6822         calculate D2E/DX2 analytically  !
 ! A193  A(96,95,97)           117.1287         calculate D2E/DX2 analytically  !
 ! A194  A(96,95,98)           122.1271         calculate D2E/DX2 analytically  !
 ! A195  A(97,95,98)           120.7274         calculate D2E/DX2 analytically  !
 ! A196  A(95,96,99)           111.0192         calculate D2E/DX2 analytically  !
 ! A197  A(95,96,100)          109.7374         calculate D2E/DX2 analytically  !
 ! A198  A(95,96,101)          109.3376         calculate D2E/DX2 analytically  !
 ! A199  A(99,96,100)          108.166          calculate D2E/DX2 analytically  !
 ! A200  A(99,96,101)          109.3322         calculate D2E/DX2 analytically  !
 ! A201  A(100,96,101)         109.2188         calculate D2E/DX2 analytically  !
 ! A202  A(95,97,102)          110.4629         calculate D2E/DX2 analytically  !
 ! A203  A(95,97,103)          109.6389         calculate D2E/DX2 analytically  !
 ! A204  A(95,97,104)          110.6954         calculate D2E/DX2 analytically  !
 ! A205  A(102,97,103)         108.7049         calculate D2E/DX2 analytically  !
 ! A206  A(102,97,104)         108.3492         calculate D2E/DX2 analytically  !
 ! A207  A(103,97,104)         108.9422         calculate D2E/DX2 analytically  !
 ! A208  A(94,98,95)           126.1407         calculate D2E/DX2 analytically  !
 ! A209  A(94,98,105)          122.2484         calculate D2E/DX2 analytically  !
 ! A210  A(95,98,105)          111.6101         calculate D2E/DX2 analytically  !
 ! A211  A(93,99,96)           130.3928         calculate D2E/DX2 analytically  !
 ! A212  A(86,101,96)          111.0664         calculate D2E/DX2 analytically  !
 ! A213  A(66,105,98)          125.7225         calculate D2E/DX2 analytically  !
 ! A214  L(2,1,5,4,-1)         179.3569         calculate D2E/DX2 analytically  !
 ! A215  L(3,1,4,5,-1)         179.549          calculate D2E/DX2 analytically  !
 ! A216  L(2,1,5,4,-2)         188.2179         calculate D2E/DX2 analytically  !
 ! A217  L(3,1,4,5,-2)         180.3558         calculate D2E/DX2 analytically  !
 ! D1    D(3,1,2,8)            178.7257         calculate D2E/DX2 analytically  !
 ! D2    D(4,1,2,8)             -0.987          calculate D2E/DX2 analytically  !
 ! D3    D(2,1,3,9)           -175.307          calculate D2E/DX2 analytically  !
 ! D4    D(5,1,3,9)             12.9029         calculate D2E/DX2 analytically  !
 ! D5    D(2,1,4,22)             2.4532         calculate D2E/DX2 analytically  !
 ! D6    D(2,1,4,24)           177.8125         calculate D2E/DX2 analytically  !
 ! D7    D(5,1,4,22)           174.2352         calculate D2E/DX2 analytically  !
 ! D8    D(5,1,4,24)           -10.4055         calculate D2E/DX2 analytically  !
 ! D9    D(3,1,5,23)            -6.7743         calculate D2E/DX2 analytically  !
 ! D10   D(3,1,5,25)           164.9415         calculate D2E/DX2 analytically  !
 ! D11   D(4,1,5,23)           172.8699         calculate D2E/DX2 analytically  !
 ! D12   D(4,1,5,25)           -15.4143         calculate D2E/DX2 analytically  !
 ! D13   D(1,2,8,6)            178.3308         calculate D2E/DX2 analytically  !
 ! D14   D(1,2,8,10)            -1.1437         calculate D2E/DX2 analytically  !
 ! D15   D(1,3,9,7)            167.7079         calculate D2E/DX2 analytically  !
 ! D16   D(1,3,9,11)           -11.0467         calculate D2E/DX2 analytically  !
 ! D17   D(1,4,22,10)           -1.8857         calculate D2E/DX2 analytically  !
 ! D18   D(1,4,22,46)          178.5017         calculate D2E/DX2 analytically  !
 ! D19   D(24,4,22,10)        -176.9839         calculate D2E/DX2 analytically  !
 ! D20   D(24,4,22,46)           3.4035         calculate D2E/DX2 analytically  !
 ! D21   D(1,4,24,25)           32.2998         calculate D2E/DX2 analytically  !
 ! D22   D(1,4,24,38)          -88.7572         calculate D2E/DX2 analytically  !
 ! D23   D(1,4,24,48)          150.3426         calculate D2E/DX2 analytically  !
 ! D24   D(22,4,24,25)        -151.9818         calculate D2E/DX2 analytically  !
 ! D25   D(22,4,24,38)          86.9612         calculate D2E/DX2 analytically  !
 ! D26   D(22,4,24,48)         -33.939          calculate D2E/DX2 analytically  !
 ! D27   D(1,5,23,11)           -0.9309         calculate D2E/DX2 analytically  !
 ! D28   D(1,5,23,47)          178.4749         calculate D2E/DX2 analytically  !
 ! D29   D(25,5,23,11)        -171.905          calculate D2E/DX2 analytically  !
 ! D30   D(25,5,23,47)           7.5009         calculate D2E/DX2 analytically  !
 ! D31   D(1,5,25,24)           35.9126         calculate D2E/DX2 analytically  !
 ! D32   D(1,5,25,39)          161.0            calculate D2E/DX2 analytically  !
 ! D33   D(1,5,25,49)          -77.9716         calculate D2E/DX2 analytically  !
 ! D34   D(23,5,25,24)        -151.9635         calculate D2E/DX2 analytically  !
 ! D35   D(23,5,25,39)         -26.8761         calculate D2E/DX2 analytically  !
 ! D36   D(23,5,25,49)          94.1523         calculate D2E/DX2 analytically  !
 ! D37   D(14,6,8,2)            -2.7314         calculate D2E/DX2 analytically  !
 ! D38   D(14,6,8,10)          176.7721         calculate D2E/DX2 analytically  !
 ! D39   D(16,6,8,2)           178.1851         calculate D2E/DX2 analytically  !
 ! D40   D(16,6,8,10)           -2.3115         calculate D2E/DX2 analytically  !
 ! D41   D(8,6,14,26)           59.5086         calculate D2E/DX2 analytically  !
 ! D42   D(8,6,14,27)          -61.3287         calculate D2E/DX2 analytically  !
 ! D43   D(8,6,14,28)          179.4891         calculate D2E/DX2 analytically  !
 ! D44   D(16,6,14,26)        -121.4372         calculate D2E/DX2 analytically  !
 ! D45   D(16,6,14,27)         117.7255         calculate D2E/DX2 analytically  !
 ! D46   D(16,6,14,28)          -1.4567         calculate D2E/DX2 analytically  !
 ! D47   D(8,6,16,12)            0.9909         calculate D2E/DX2 analytically  !
 ! D48   D(8,6,16,42)         -179.2717         calculate D2E/DX2 analytically  !
 ! D49   D(14,6,16,12)        -178.0792         calculate D2E/DX2 analytically  !
 ! D50   D(14,6,16,42)           1.6582         calculate D2E/DX2 analytically  !
 ! D51   D(15,7,9,3)            -3.1148         calculate D2E/DX2 analytically  !
 ! D52   D(15,7,9,11)          175.7052         calculate D2E/DX2 analytically  !
 ! D53   D(17,7,9,3)          -179.5307         calculate D2E/DX2 analytically  !
 ! D54   D(17,7,9,11)           -0.7108         calculate D2E/DX2 analytically  !
 ! D55   D(9,7,15,29)           58.2018         calculate D2E/DX2 analytically  !
 ! D56   D(9,7,15,30)          178.4654         calculate D2E/DX2 analytically  !
 ! D57   D(9,7,15,31)          -62.681          calculate D2E/DX2 analytically  !
 ! D58   D(17,7,15,29)        -125.4779         calculate D2E/DX2 analytically  !
 ! D59   D(17,7,15,30)          -5.2143         calculate D2E/DX2 analytically  !
 ! D60   D(17,7,15,31)         113.6393         calculate D2E/DX2 analytically  !
 ! D61   D(9,7,17,13)            0.1012         calculate D2E/DX2 analytically  !
 ! D62   D(9,7,17,43)          179.5049         calculate D2E/DX2 analytically  !
 ! D63   D(15,7,17,13)        -176.2695         calculate D2E/DX2 analytically  !
 ! D64   D(15,7,17,43)           3.1342         calculate D2E/DX2 analytically  !
 ! D65   D(2,8,10,18)         -178.5125         calculate D2E/DX2 analytically  !
 ! D66   D(2,8,10,22)            2.4696         calculate D2E/DX2 analytically  !
 ! D67   D(6,8,10,18)            2.0048         calculate D2E/DX2 analytically  !
 ! D68   D(6,8,10,22)         -177.0131         calculate D2E/DX2 analytically  !
 ! D69   D(3,9,11,19)          179.8887         calculate D2E/DX2 analytically  !
 ! D70   D(3,9,11,23)           -0.2457         calculate D2E/DX2 analytically  !
 ! D71   D(7,9,11,19)            1.1104         calculate D2E/DX2 analytically  !
 ! D72   D(7,9,11,23)         -179.024          calculate D2E/DX2 analytically  !
 ! D73   D(8,10,18,12)          -0.2695         calculate D2E/DX2 analytically  !
 ! D74   D(8,10,18,44)         179.6566         calculate D2E/DX2 analytically  !
 ! D75   D(22,10,18,12)        178.7968         calculate D2E/DX2 analytically  !
 ! D76   D(22,10,18,44)         -1.2771         calculate D2E/DX2 analytically  !
 ! D77   D(8,10,22,4)           -0.9135         calculate D2E/DX2 analytically  !
 ! D78   D(8,10,22,46)         178.7038         calculate D2E/DX2 analytically  !
 ! D79   D(18,10,22,4)        -179.9642         calculate D2E/DX2 analytically  !
 ! D80   D(18,10,22,46)         -0.3469         calculate D2E/DX2 analytically  !
 ! D81   D(9,11,19,13)          -0.9168         calculate D2E/DX2 analytically  !
 ! D82   D(9,11,19,45)        -179.8234         calculate D2E/DX2 analytically  !
 ! D83   D(23,11,19,13)        179.2101         calculate D2E/DX2 analytically  !
 ! D84   D(23,11,19,45)          0.3036         calculate D2E/DX2 analytically  !
 ! D85   D(9,11,23,5)            6.6014         calculate D2E/DX2 analytically  !
 ! D86   D(9,11,23,47)        -172.8224         calculate D2E/DX2 analytically  !
 ! D87   D(19,11,23,5)        -173.5285         calculate D2E/DX2 analytically  !
 ! D88   D(19,11,23,47)          7.0477         calculate D2E/DX2 analytically  !
 ! D89   D(18,12,16,6)           0.7521         calculate D2E/DX2 analytically  !
 ! D90   D(18,12,16,42)       -178.9876         calculate D2E/DX2 analytically  !
 ! D91   D(20,12,16,6)        -179.5899         calculate D2E/DX2 analytically  !
 ! D92   D(20,12,16,42)          0.6704         calculate D2E/DX2 analytically  !
 ! D93   D(16,12,18,10)         -1.1102         calculate D2E/DX2 analytically  !
 ! D94   D(16,12,18,44)        178.9665         calculate D2E/DX2 analytically  !
 ! D95   D(20,12,18,10)        179.2484         calculate D2E/DX2 analytically  !
 ! D96   D(20,12,18,44)         -0.6749         calculate D2E/DX2 analytically  !
 ! D97   D(16,12,20,32)       -179.4243         calculate D2E/DX2 analytically  !
 ! D98   D(16,12,20,33)        -59.075          calculate D2E/DX2 analytically  !
 ! D99   D(16,12,20,34)         60.3164         calculate D2E/DX2 analytically  !
 ! D100  D(18,12,20,32)          0.2078         calculate D2E/DX2 analytically  !
 ! D101  D(18,12,20,33)        120.5571         calculate D2E/DX2 analytically  !
 ! D102  D(18,12,20,34)       -120.0515         calculate D2E/DX2 analytically  !
 ! D103  D(19,13,17,7)           0.1341         calculate D2E/DX2 analytically  !
 ! D104  D(19,13,17,43)       -179.2697         calculate D2E/DX2 analytically  !
 ! D105  D(21,13,17,7)         178.0013         calculate D2E/DX2 analytically  !
 ! D106  D(21,13,17,43)         -1.4026         calculate D2E/DX2 analytically  !
 ! D107  D(17,13,19,11)          0.2759         calculate D2E/DX2 analytically  !
 ! D108  D(17,13,19,45)        179.1507         calculate D2E/DX2 analytically  !
 ! D109  D(21,13,19,11)       -177.6517         calculate D2E/DX2 analytically  !
 ! D110  D(21,13,19,45)          1.2231         calculate D2E/DX2 analytically  !
 ! D111  D(17,13,21,35)       -116.0553         calculate D2E/DX2 analytically  !
 ! D112  D(17,13,21,36)        124.6947         calculate D2E/DX2 analytically  !
 ! D113  D(17,13,21,37)          4.0933         calculate D2E/DX2 analytically  !
 ! D114  D(19,13,21,35)         61.7325         calculate D2E/DX2 analytically  !
 ! D115  D(19,13,21,36)        -57.5175         calculate D2E/DX2 analytically  !
 ! D116  D(19,13,21,37)       -178.1189         calculate D2E/DX2 analytically  !
 ! D117  D(6,14,26,50)         178.6535         calculate D2E/DX2 analytically  !
 ! D118  D(6,14,26,51)         -60.9976         calculate D2E/DX2 analytically  !
 ! D119  D(6,14,26,52)          59.8797         calculate D2E/DX2 analytically  !
 ! D120  D(27,14,26,50)        -60.4207         calculate D2E/DX2 analytically  !
 ! D121  D(27,14,26,51)         59.9281         calculate D2E/DX2 analytically  !
 ! D122  D(27,14,26,52)       -179.1946         calculate D2E/DX2 analytically  !
 ! D123  D(28,14,26,50)         55.9512         calculate D2E/DX2 analytically  !
 ! D124  D(28,14,26,51)        176.3            calculate D2E/DX2 analytically  !
 ! D125  D(28,14,26,52)        -62.8227         calculate D2E/DX2 analytically  !
 ! D126  D(6,14,27,53)         -61.4995         calculate D2E/DX2 analytically  !
 ! D127  D(6,14,27,54)          59.3378         calculate D2E/DX2 analytically  !
 ! D128  D(6,14,27,55)         179.5553         calculate D2E/DX2 analytically  !
 ! D129  D(26,14,27,53)        176.8551         calculate D2E/DX2 analytically  !
 ! D130  D(26,14,27,54)        -62.3076         calculate D2E/DX2 analytically  !
 ! D131  D(26,14,27,55)         57.9099         calculate D2E/DX2 analytically  !
 ! D132  D(28,14,27,53)         60.4854         calculate D2E/DX2 analytically  !
 ! D133  D(28,14,27,54)       -178.6773         calculate D2E/DX2 analytically  !
 ! D134  D(28,14,27,55)        -58.4598         calculate D2E/DX2 analytically  !
 ! D135  D(6,14,28,56)         179.7798         calculate D2E/DX2 analytically  !
 ! D136  D(6,14,28,57)         -61.2081         calculate D2E/DX2 analytically  !
 ! D137  D(6,14,28,58)          60.7443         calculate D2E/DX2 analytically  !
 ! D138  D(26,14,28,56)        -58.3174         calculate D2E/DX2 analytically  !
 ! D139  D(26,14,28,57)         60.6948         calculate D2E/DX2 analytically  !
 ! D140  D(26,14,28,58)       -177.3529         calculate D2E/DX2 analytically  !
 ! D141  D(27,14,28,56)         59.351          calculate D2E/DX2 analytically  !
 ! D142  D(27,14,28,57)        178.3632         calculate D2E/DX2 analytically  !
 ! D143  D(27,14,28,58)        -59.6844         calculate D2E/DX2 analytically  !
 ! D144  D(7,15,29,59)         177.8736         calculate D2E/DX2 analytically  !
 ! D145  D(7,15,29,60)         -61.7769         calculate D2E/DX2 analytically  !
 ! D146  D(7,15,29,61)          59.1841         calculate D2E/DX2 analytically  !
 ! D147  D(30,15,29,59)         54.806          calculate D2E/DX2 analytically  !
 ! D148  D(30,15,29,60)        175.1556         calculate D2E/DX2 analytically  !
 ! D149  D(30,15,29,61)        -63.8834         calculate D2E/DX2 analytically  !
 ! D150  D(31,15,29,59)        -61.5483         calculate D2E/DX2 analytically  !
 ! D151  D(31,15,29,60)         58.8012         calculate D2E/DX2 analytically  !
 ! D152  D(31,15,29,61)        179.7622         calculate D2E/DX2 analytically  !
 ! D153  D(7,15,30,62)        -179.5279         calculate D2E/DX2 analytically  !
 ! D154  D(7,15,30,63)         -60.4738         calculate D2E/DX2 analytically  !
 ! D155  D(7,15,30,64)          61.5079         calculate D2E/DX2 analytically  !
 ! D156  D(29,15,30,62)        -56.9735         calculate D2E/DX2 analytically  !
 ! D157  D(29,15,30,63)         62.0806         calculate D2E/DX2 analytically  !
 ! D158  D(29,15,30,64)       -175.9377         calculate D2E/DX2 analytically  !
 ! D159  D(31,15,30,62)         60.7221         calculate D2E/DX2 analytically  !
 ! D160  D(31,15,30,63)        179.7762         calculate D2E/DX2 analytically  !
 ! D161  D(31,15,30,64)        -58.2421         calculate D2E/DX2 analytically  !
 ! D162  D(7,15,31,65)         -61.4756         calculate D2E/DX2 analytically  !
 ! D163  D(7,15,31,66)          59.4014         calculate D2E/DX2 analytically  !
 ! D164  D(7,15,31,67)         179.5979         calculate D2E/DX2 analytically  !
 ! D165  D(29,15,31,65)        176.539          calculate D2E/DX2 analytically  !
 ! D166  D(29,15,31,66)        -62.584          calculate D2E/DX2 analytically  !
 ! D167  D(29,15,31,67)         57.6125         calculate D2E/DX2 analytically  !
 ! D168  D(30,15,31,65)         60.2676         calculate D2E/DX2 analytically  !
 ! D169  D(30,15,31,66)       -178.8554         calculate D2E/DX2 analytically  !
 ! D170  D(30,15,31,67)        -58.6589         calculate D2E/DX2 analytically  !
 ! D171  D(12,20,32,68)       -179.9498         calculate D2E/DX2 analytically  !
 ! D172  D(12,20,32,69)        -60.5996         calculate D2E/DX2 analytically  !
 ! D173  D(12,20,32,70)         60.7048         calculate D2E/DX2 analytically  !
 ! D174  D(33,20,32,68)         58.9682         calculate D2E/DX2 analytically  !
 ! D175  D(33,20,32,69)        178.3183         calculate D2E/DX2 analytically  !
 ! D176  D(33,20,32,70)        -60.3773         calculate D2E/DX2 analytically  !
 ! D177  D(34,20,32,68)        -59.0655         calculate D2E/DX2 analytically  !
 ! D178  D(34,20,32,69)         60.2847         calculate D2E/DX2 analytically  !
 ! D179  D(34,20,32,70)       -178.4109         calculate D2E/DX2 analytically  !
 ! D180  D(12,20,33,71)        179.502          calculate D2E/DX2 analytically  !
 ! D181  D(12,20,33,72)        -60.7695         calculate D2E/DX2 analytically  !
 ! D182  D(12,20,33,73)         59.7506         calculate D2E/DX2 analytically  !
 ! D183  D(32,20,33,71)        -58.0145         calculate D2E/DX2 analytically  !
 ! D184  D(32,20,33,72)         61.714          calculate D2E/DX2 analytically  !
 ! D185  D(32,20,33,73)       -177.7659         calculate D2E/DX2 analytically  !
 ! D186  D(34,20,33,71)         59.7298         calculate D2E/DX2 analytically  !
 ! D187  D(34,20,33,72)        179.4583         calculate D2E/DX2 analytically  !
 ! D188  D(34,20,33,73)        -60.0216         calculate D2E/DX2 analytically  !
 ! D189  D(12,20,34,74)        -59.4947         calculate D2E/DX2 analytically  !
 ! D190  D(12,20,34,75)         60.9586         calculate D2E/DX2 analytically  !
 ! D191  D(12,20,34,76)       -179.2847         calculate D2E/DX2 analytically  !
 ! D192  D(32,20,34,74)        178.1144         calculate D2E/DX2 analytically  !
 ! D193  D(32,20,34,75)        -61.4323         calculate D2E/DX2 analytically  !
 ! D194  D(32,20,34,76)         58.3244         calculate D2E/DX2 analytically  !
 ! D195  D(33,20,34,74)         60.3819         calculate D2E/DX2 analytically  !
 ! D196  D(33,20,34,75)       -179.1647         calculate D2E/DX2 analytically  !
 ! D197  D(33,20,34,76)        -59.4081         calculate D2E/DX2 analytically  !
 ! D198  D(13,21,35,77)        179.8863         calculate D2E/DX2 analytically  !
 ! D199  D(13,21,35,78)        -60.3356         calculate D2E/DX2 analytically  !
 ! D200  D(13,21,35,79)         60.0524         calculate D2E/DX2 analytically  !
 ! D201  D(36,21,35,77)        -60.2647         calculate D2E/DX2 analytically  !
 ! D202  D(36,21,35,78)         59.5134         calculate D2E/DX2 analytically  !
 ! D203  D(36,21,35,79)        179.9014         calculate D2E/DX2 analytically  !
 ! D204  D(37,21,35,77)         57.327          calculate D2E/DX2 analytically  !
 ! D205  D(37,21,35,78)        177.1051         calculate D2E/DX2 analytically  !
 ! D206  D(37,21,35,79)        -62.5069         calculate D2E/DX2 analytically  !
 ! D207  D(13,21,36,80)        -61.1339         calculate D2E/DX2 analytically  !
 ! D208  D(13,21,36,81)         59.3528         calculate D2E/DX2 analytically  !
 ! D209  D(13,21,36,82)        179.1147         calculate D2E/DX2 analytically  !
 ! D210  D(35,21,36,80)        179.4802         calculate D2E/DX2 analytically  !
 ! D211  D(35,21,36,81)        -60.0331         calculate D2E/DX2 analytically  !
 ! D212  D(35,21,36,82)         59.7288         calculate D2E/DX2 analytically  !
 ! D213  D(37,21,36,80)         61.8604         calculate D2E/DX2 analytically  !
 ! D214  D(37,21,36,81)       -177.6529         calculate D2E/DX2 analytically  !
 ! D215  D(37,21,36,82)        -57.891          calculate D2E/DX2 analytically  !
 ! D216  D(13,21,37,83)        179.1216         calculate D2E/DX2 analytically  !
 ! D217  D(13,21,37,84)        -61.6716         calculate D2E/DX2 analytically  !
 ! D218  D(13,21,37,85)         59.8197         calculate D2E/DX2 analytically  !
 ! D219  D(35,21,37,83)        -60.3041         calculate D2E/DX2 analytically  !
 ! D220  D(35,21,37,84)         58.9026         calculate D2E/DX2 analytically  !
 ! D221  D(35,21,37,85)       -179.6061         calculate D2E/DX2 analytically  !
 ! D222  D(36,21,37,83)         57.644          calculate D2E/DX2 analytically  !
 ! D223  D(36,21,37,84)        176.8508         calculate D2E/DX2 analytically  !
 ! D224  D(36,21,37,85)        -61.6579         calculate D2E/DX2 analytically  !
 ! D225  D(4,24,25,5)          -42.3381         calculate D2E/DX2 analytically  !
 ! D226  D(4,24,25,39)        -170.388          calculate D2E/DX2 analytically  !
 ! D227  D(4,24,25,49)          69.8852         calculate D2E/DX2 analytically  !
 ! D228  D(38,24,25,5)          77.3158         calculate D2E/DX2 analytically  !
 ! D229  D(38,24,25,39)        -50.7342         calculate D2E/DX2 analytically  !
 ! D230  D(38,24,25,49)       -170.461          calculate D2E/DX2 analytically  !
 ! D231  D(48,24,25,5)        -160.8721         calculate D2E/DX2 analytically  !
 ! D232  D(48,24,25,39)         71.0779         calculate D2E/DX2 analytically  !
 ! D233  D(48,24,25,49)        -48.6488         calculate D2E/DX2 analytically  !
 ! D234  D(4,24,38,40)         170.4831         calculate D2E/DX2 analytically  !
 ! D235  D(4,24,38,86)          49.1934         calculate D2E/DX2 analytically  !
 ! D236  D(4,24,38,87)         -65.7278         calculate D2E/DX2 analytically  !
 ! D237  D(25,24,38,40)         52.6171         calculate D2E/DX2 analytically  !
 ! D238  D(25,24,38,86)        -68.6727         calculate D2E/DX2 analytically  !
 ! D239  D(25,24,38,87)        176.4062         calculate D2E/DX2 analytically  !
 ! D240  D(48,24,38,40)        -68.6917         calculate D2E/DX2 analytically  !
 ! D241  D(48,24,38,86)        170.0186         calculate D2E/DX2 analytically  !
 ! D242  D(48,24,38,87)         55.0974         calculate D2E/DX2 analytically  !
 ! D243  D(5,25,39,41)         -68.7061         calculate D2E/DX2 analytically  !
 ! D244  D(5,25,39,88)         171.5298         calculate D2E/DX2 analytically  !
 ! D245  D(5,25,39,89)          57.2605         calculate D2E/DX2 analytically  !
 ! D246  D(24,25,39,41)         53.4115         calculate D2E/DX2 analytically  !
 ! D247  D(24,25,39,88)        -66.3527         calculate D2E/DX2 analytically  !
 ! D248  D(24,25,39,89)        179.378          calculate D2E/DX2 analytically  !
 ! D249  D(49,25,39,41)        172.302          calculate D2E/DX2 analytically  !
 ! D250  D(49,25,39,88)         52.5378         calculate D2E/DX2 analytically  !
 ! D251  D(49,25,39,89)        -61.7315         calculate D2E/DX2 analytically  !
 ! D252  D(15,31,66,105)       -88.0361         calculate D2E/DX2 analytically  !
 ! D253  D(65,31,66,105)        34.1425         calculate D2E/DX2 analytically  !
 ! D254  D(67,31,66,105)       150.4426         calculate D2E/DX2 analytically  !
 ! D255  D(24,38,40,41)        -55.8473         calculate D2E/DX2 analytically  !
 ! D256  D(24,38,40,90)       -178.45           calculate D2E/DX2 analytically  !
 ! D257  D(24,38,40,91)         64.8964         calculate D2E/DX2 analytically  !
 ! D258  D(86,38,40,41)         63.9861         calculate D2E/DX2 analytically  !
 ! D259  D(86,38,40,90)        -58.6166         calculate D2E/DX2 analytically  !
 ! D260  D(86,38,40,91)       -175.2702         calculate D2E/DX2 analytically  !
 ! D261  D(87,38,40,41)       -178.1987         calculate D2E/DX2 analytically  !
 ! D262  D(87,38,40,90)         59.1986         calculate D2E/DX2 analytically  !
 ! D263  D(87,38,40,91)        -57.455          calculate D2E/DX2 analytically  !
 ! D264  D(24,38,86,94)        -51.0426         calculate D2E/DX2 analytically  !
 ! D265  D(24,38,86,101)      -179.244          calculate D2E/DX2 analytically  !
 ! D266  D(40,38,86,94)       -173.8381         calculate D2E/DX2 analytically  !
 ! D267  D(40,38,86,101)        57.9604         calculate D2E/DX2 analytically  !
 ! D268  D(87,38,86,94)         65.3867         calculate D2E/DX2 analytically  !
 ! D269  D(87,38,86,101)       -62.8148         calculate D2E/DX2 analytically  !
 ! D270  D(25,39,41,40)        -56.3403         calculate D2E/DX2 analytically  !
 ! D271  D(25,39,41,92)       -178.7982         calculate D2E/DX2 analytically  !
 ! D272  D(25,39,41,93)         64.4124         calculate D2E/DX2 analytically  !
 ! D273  D(88,39,41,40)         61.9256         calculate D2E/DX2 analytically  !
 ! D274  D(88,39,41,92)        -60.5323         calculate D2E/DX2 analytically  !
 ! D275  D(88,39,41,93)       -177.3217         calculate D2E/DX2 analytically  !
 ! D276  D(89,39,41,40)        178.3234         calculate D2E/DX2 analytically  !
 ! D277  D(89,39,41,92)         55.8655         calculate D2E/DX2 analytically  !
 ! D278  D(89,39,41,93)        -60.9239         calculate D2E/DX2 analytically  !
 ! D279  D(38,40,41,39)         56.8458         calculate D2E/DX2 analytically  !
 ! D280  D(38,40,41,92)        178.777          calculate D2E/DX2 analytically  !
 ! D281  D(38,40,41,93)        -64.0981         calculate D2E/DX2 analytically  !
 ! D282  D(90,40,41,39)        178.8265         calculate D2E/DX2 analytically  !
 ! D283  D(90,40,41,92)        -59.2423         calculate D2E/DX2 analytically  !
 ! D284  D(90,40,41,93)         57.8826         calculate D2E/DX2 analytically  !
 ! D285  D(91,40,41,39)        -64.3601         calculate D2E/DX2 analytically  !
 ! D286  D(91,40,41,92)         57.5711         calculate D2E/DX2 analytically  !
 ! D287  D(91,40,41,93)        174.6959         calculate D2E/DX2 analytically  !
 ! D288  D(39,41,93,99)       -150.7729         calculate D2E/DX2 analytically  !
 ! D289  D(40,41,93,99)        -29.5769         calculate D2E/DX2 analytically  !
 ! D290  D(92,41,93,99)         90.2708         calculate D2E/DX2 analytically  !
 ! D291  D(31,66,105,98)      -158.0159         calculate D2E/DX2 analytically  !
 ! D292  D(38,86,94,98)        152.8773         calculate D2E/DX2 analytically  !
 ! D293  D(101,86,94,98)       -65.8394         calculate D2E/DX2 analytically  !
 ! D294  D(38,86,101,96)      -111.0573         calculate D2E/DX2 analytically  !
 ! D295  D(94,86,101,96)        91.3356         calculate D2E/DX2 analytically  !
 ! D296  D(41,93,99,96)        109.0379         calculate D2E/DX2 analytically  !
 ! D297  D(86,94,98,95)         43.904          calculate D2E/DX2 analytically  !
 ! D298  D(86,94,98,105)      -136.4491         calculate D2E/DX2 analytically  !
 ! D299  D(97,95,96,99)         63.9763         calculate D2E/DX2 analytically  !
 ! D300  D(97,95,96,100)       -55.5422         calculate D2E/DX2 analytically  !
 ! D301  D(97,95,96,101)      -175.3138         calculate D2E/DX2 analytically  !
 ! D302  D(98,95,96,99)       -114.5424         calculate D2E/DX2 analytically  !
 ! D303  D(98,95,96,100)       125.9391         calculate D2E/DX2 analytically  !
 ! D304  D(98,95,96,101)         6.1676         calculate D2E/DX2 analytically  !
 ! D305  D(96,95,97,102)       -62.8627         calculate D2E/DX2 analytically  !
 ! D306  D(96,95,97,103)       177.3626         calculate D2E/DX2 analytically  !
 ! D307  D(96,95,97,104)        57.1475         calculate D2E/DX2 analytically  !
 ! D308  D(98,95,97,102)       115.6779         calculate D2E/DX2 analytically  !
 ! D309  D(98,95,97,103)        -4.0968         calculate D2E/DX2 analytically  !
 ! D310  D(98,95,97,104)      -124.3118         calculate D2E/DX2 analytically  !
 ! D311  D(96,95,98,94)          3.6184         calculate D2E/DX2 analytically  !
 ! D312  D(96,95,98,105)      -176.0604         calculate D2E/DX2 analytically  !
 ! D313  D(97,95,98,94)       -174.8479         calculate D2E/DX2 analytically  !
 ! D314  D(97,95,98,105)         5.4733         calculate D2E/DX2 analytically  !
 ! D315  D(95,96,99,93)         49.5836         calculate D2E/DX2 analytically  !
 ! D316  D(100,96,99,93)       170.0373         calculate D2E/DX2 analytically  !
 ! D317  D(101,96,99,93)       -71.1295         calculate D2E/DX2 analytically  !
 ! D318  D(95,96,101,86)       -69.6515         calculate D2E/DX2 analytically  !
 ! D319  D(99,96,101,86)        52.0812         calculate D2E/DX2 analytically  !
 ! D320  D(100,96,101,86)      170.2584         calculate D2E/DX2 analytically  !
 ! D321  D(94,98,105,66)       -16.2124         calculate D2E/DX2 analytically  !
 ! D322  D(95,98,105,66)       163.4809         calculate D2E/DX2 analytically  !
 --------------------------------------------------------------------------------
 Trust Radius=3.00D-01 FncErr=5.00D-06 GrdErr=5.00D-06 EigMax=2.50D+02 EigMin=1.00D-04
 Number of steps in this run=    630 maximum allowed number of steps=    630.
 GradGradGradGradGradGradGradGradGradGradGradGradGradGradGradGradGradGrad

 Symmetry turned off by external request.
 Stoichiometry    C39H59CoN3O3(1-)
 Framework group  C1[X(C39H59CoN3O3)]
 Deg. of freedom   309
 Full point group                 C1      NOp   1
                          Input orientation:                          
 ---------------------------------------------------------------------
 Center     Atomic      Atomic             Coordinates (Angstroms)
 Number     Number       Type             X           Y           Z
 ---------------------------------------------------------------------
      1         27           0       -0.236765   -0.557686   -3.840781
      2          8           0        1.011961   -1.999711   -3.819837
      3          8           0       -1.583998   -1.852020   -3.423549
      4          7           0        1.073807    0.724059   -4.259797
      5          7           0       -1.403796    0.915257   -3.603112
      6          6           0        3.053336   -3.179611   -3.947715
      7          6           0       -3.745555   -2.792544   -3.271570
      8          6           0        2.286283   -1.966093   -4.053871
      9          6           0       -2.863657   -1.661736   -3.332441
     10          6           0        2.986142   -0.767137   -4.407376
     11          6           0       -3.457079   -0.355476   -3.314604
     12          6           0        5.105167   -1.961167   -4.618117
     13          6           0       -5.710416   -1.289138   -3.152231
     14          6           0        2.376446   -4.480539   -3.501068
     15          6           0       -3.180356   -4.213970   -3.386184
     16          6           0        4.406007   -3.130654   -4.238737
     17          6           0       -5.114125   -2.565757   -3.184114
     18          6           0        4.373242   -0.796191   -4.682255
     19          6           0       -4.854645   -0.206661   -3.216284
     20          6           0        6.600019   -2.044837   -4.922069
     21          6           0       -7.225084   -1.076473   -3.100071
     22          6           0        2.334025    0.502429   -4.478989
     23          6           0       -2.681186    0.846756   -3.391064
     24          6           0        0.531270    2.078859   -4.436608
     25          6           0       -0.664212    2.196879   -3.489197
     26          6           0        1.238562   -4.859979   -4.460798
     27          6           0        1.811997   -4.306695   -2.082075
     28          6           0        3.356216   -5.654769   -3.464354
     29          6           0       -2.140812   -4.491717   -2.289625
     30          6           0       -4.270661   -5.280022   -3.261012
     31          6           0       -2.526894   -4.382527   -4.767535
     32          6           0        7.182785   -0.684502   -5.299140
     33          6           0        7.349159   -2.567721   -3.688946
     34          6           0        6.831587   -3.012293   -6.090724
     35          6           0       -7.676469   -0.363203   -4.382602
     36          6           0       -7.586608   -0.202164   -1.892780
     37          6           0       -7.992208   -2.392930   -2.986249
     38          6           0        0.120072    2.279244   -5.894772
     39          6           0       -1.461038    3.469866   -3.741952
     40          6           0       -0.659972    3.568294   -6.107020
     41          6           0       -1.881562    3.617073   -5.197997
     42          1           0        4.978419   -4.050245   -4.169162
     43          1           0       -5.767425   -3.428676   -3.147228
     44          1           0        4.844846    0.145631   -4.950170
     45          1           0       -5.250282    0.808019   -3.210149
     46          1           0        2.965113    1.359416   -4.737078
     47          1           0       -3.240481    1.774007   -3.244971
     48          1           0        1.287900    2.823115   -4.154696
     49          1           0       -0.274701    2.215435   -2.462308
     50          1           0        0.779901   -5.803330   -4.143187
     51          1           0        0.467178   -4.090800   -4.485450
     52          1           0        1.616466   -5.004271   -5.479130
     53          1           0        2.613488   -4.090042   -1.367455
     54          1           0        1.083689   -3.495823   -2.038481
     55          1           0        1.318332   -5.228773   -1.754920
     56          1           0        2.828261   -6.555817   -3.137207
     57          1           0        3.786457   -5.867316   -4.448437
     58          1           0        4.181143   -5.488189   -2.764313
     59          1           0       -1.780004   -5.523546   -2.368870
     60          1           0       -1.286437   -3.820209   -2.369908
     61          1           0       -2.581187   -4.373924   -1.293217
     62          1           0       -3.816254   -6.272384   -3.340773
     63          1           0       -4.787841   -5.232799   -2.297081
     64          1           0       -5.023549   -5.203737   -4.051799
     65          1           0       -3.266352   -4.248911   -5.565488
     66          1           0       -1.720609   -3.662262   -4.918524
     67          1           0       -2.108169   -5.390098   -4.871675
     68          1           0        8.251971   -0.782939   -5.510314
     69          1           0        6.708081   -0.269539   -6.193815
     70          1           0        7.073432    0.045859   -4.491253
     71          1           0        8.422689   -2.642200   -3.893143
     72          1           0        7.217283   -1.898853   -2.832257
     73          1           0        7.001343   -3.561787   -3.392641
     74          1           0        6.462890   -4.017399   -5.865181
     75          1           0        6.324219   -2.666708   -6.997253
     76          1           0        7.900178   -3.096074   -6.316344
     77          1           0       -8.759682   -0.198826   -4.374433
     78          1           0       -7.195036    0.613597   -4.490378
     79          1           0       -7.434772   -0.955000   -5.272019
     80          1           0       -7.289019   -0.680205   -0.953879
     81          1           0       -7.097881    0.775395   -1.938846
     82          1           0       -8.667324   -0.028429   -1.851684
     83          1           0       -9.066767   -2.192095   -2.936480
     84          1           0       -7.822033   -3.045234   -3.848424
     85          1           0       -7.719993   -2.949953   -2.084115
     86          1           0       -0.491296    1.418095   -6.186241
     87          1           0        1.018322    2.249172   -6.521593
     88          1           0       -0.808993    4.308442   -3.467893
     89          1           0       -2.316640    3.530860   -3.063353
     90          1           0       -0.954723    3.652630   -7.158512
     91          1           0       -0.017713    4.434236   -5.894783
     92          1           0       -2.431065    4.553695   -5.334713
     93          1           0       -2.574039    2.807550   -5.469830
     94          8           0       -0.942527   -0.867051   -6.393931
     95          7           0       -3.033797   -0.181681   -7.058466
     96          6           0       -2.587800    0.860368   -7.958630
     97          6           0       -4.462382   -0.331950   -6.878775
     98          6           0       -2.169281   -0.965963   -6.386171
     99          1           0       -2.867559    1.849883   -7.583133
    100          1           0       -3.051812    0.724260   -8.940357
    101          1           0       -1.505188    0.807383   -8.063394
    102          1           0       -4.889758    0.573272   -6.432016
    103          1           0       -4.662129   -1.177115   -6.216693
    104          1           0       -4.956658   -0.508522   -7.839400
    105          1           0       -2.692910   -1.743490   -5.806627
 ---------------------------------------------------------------------
 Rotational constants (GHZ):           0.1082465           0.0440160           0.0353792
 General basis read from cards:  (5D, 7F)
 ======================================================================================================
                                       Pseudopotential Parameters
 ======================================================================================================
  Center     Atomic      Valence      Angular      Power
  Number     Number     Electrons     Momentum     of R      Exponent        Coefficient   SO-Coeffient
 ======================================================================================================
    1         27           17
                                      F and up 
                                                     2        1.0000000        0.00000000    0.00000000
                                      S - F
                                                     2       23.6600000      283.96056600    0.00000000
                                                     2       10.6100000       47.15684600    0.00000000
                                      P - F
                                                     2       25.0400000      182.21223600    0.00000000
                                                     2       10.4400000       35.23335200    0.00000000
                                      D - F
                                                     2       29.5400000      -26.47533300    0.00000000
                                                     2       10.1800000       -1.82578700    0.00000000
    2          8
                                   No pseudopotential on this center.
    3          8
                                   No pseudopotential on this center.
    4          7
                                   No pseudopotential on this center.
    5          7
                                   No pseudopotential on this center.
    6          6
                                   No pseudopotential on this center.
    7          6
                                   No pseudopotential on this center.
    8          6
                                   No pseudopotential on this center.
    9          6
                                   No pseudopotential on this center.
   10          6
                                   No pseudopotential on this center.
   11          6
                                   No pseudopotential on this center.
   12          6
                                   No pseudopotential on this center.
   13          6
                                   No pseudopotential on this center.
   14          6
                                   No pseudopotential on this center.
   15          6
                                   No pseudopotential on this center.
   16          6
                                   No pseudopotential on this center.
   17          6
                                   No pseudopotential on this center.
   18          6
                                   No pseudopotential on this center.
   19          6
                                   No pseudopotential on this center.
   20          6
                                   No pseudopotential on this center.
   21          6
                                   No pseudopotential on this center.
   22          6
                                   No pseudopotential on this center.
   23          6
                                   No pseudopotential on this center.
   24          6
                                   No pseudopotential on this center.
   25          6
                                   No pseudopotential on this center.
   26          6
                                   No pseudopotential on this center.
   27          6
                                   No pseudopotential on this center.
   28          6
                                   No pseudopotential on this center.
   29          6
                                   No pseudopotential on this center.
   30          6
                                   No pseudopotential on this center.
   31          6
                                   No pseudopotential on this center.
   32          6
                                   No pseudopotential on this center.
   33          6
                                   No pseudopotential on this center.
   34          6
                                   No pseudopotential on this center.
   35          6
                                   No pseudopotential on this center.
   36          6
                                   No pseudopotential on this center.
   37          6
                                   No pseudopotential on this center.
   38          6
                                   No pseudopotential on this center.
   39          6
                                   No pseudopotential on this center.
   40          6
                                   No pseudopotential on this center.
   41          6
                                   No pseudopotential on this center.
   42          1
                                   No pseudopotential on this center.
   43          1
                                   No pseudopotential on this center.
   44          1
                                   No pseudopotential on this center.
   45          1
                                   No pseudopotential on this center.
   46          1
                                   No pseudopotential on this center.
   47          1
                                   No pseudopotential on this center.
   48          1
                                   No pseudopotential on this center.
   49          1
                                   No pseudopotential on this center.
   50          1
                                   No pseudopotential on this center.
   51          1
                                   No pseudopotential on this center.
   52          1
                                   No pseudopotential on this center.
   53          1
                                   No pseudopotential on this center.
   54          1
                                   No pseudopotential on this center.
   55          1
                                   No pseudopotential on this center.
   56          1
[...]
 0001917,-0.00002098,0.00001464,-0.00000077,-0.00000081,-0.00000143,0.0
 0000115,-0.00000116,-0.00000006,-0.00000161,0.00000226,0.00000250,-0.0
 0000249,-0.00000114,-0.00000043,-0.00000074,-0.00000201,-0.00000054,-0
 .00000038,-0.00000145,-0.00000156,0.00000238,-0.00000147,0.00000039,-0
 .00000119,0.00000349,-0.00000127,-0.00000676,0.00000026,-0.00001276,0.
 00000656,0.00000152,0.00000324,-0.00000205,0.00000080,0.00000406,-0.00
 001395,0.00000125,0.00000947,-0.00000648,-0.00001150,-0.00000441,-0.00
 000974,-0.00004907,-0.00003071,-0.00039378,-0.00047235,-0.00047767,0.0
 0351099,0.00153399,0.00400971,-0.00065131,-0.00017150,-0.00015437,-0.0
 1338492,-0.04879290,-0.01272546,0.00162438,0.00024297,0.00013437,-0.00
 004105,-0.00010035,-0.00017126,0.00003827,0.00007523,-0.00022902,0.000
 10313,-0.00002860,-0.00002343,-0.01996507,-0.00152544,-0.01911619,0.01
 770492,0.00279882,0.01407529,0.01129833,0.04606860,-0.00003128,0.00002
 067,0.00000630,-0.00002459,0.00001834,0.00000594,-0.00016788,0.0000446
 8,0.00002601,0.00006924,0.00001920,-0.00002172,0.00009136,-0.00006282,
 0.00001770,0.00000342,-0.00000626,0.00000078,-0.00002020,0.00000446,0.
 00000465,0.00002069,0.00001499,-0.00000922,0.00019734,-0.00026619,-0.0
 0001730,-0.00000362,-0.00001632,0.00000520,-0.00001607,0.00007710,-0.0
 0067659,-0.00000307,0.00001045,-0.00000206,-0.00006374,-0.00006422,-0.
 00002948,-0.00000170,-0.00000486,0.00000085,0.00000772,-0.00002167,-0.
 00000275,-0.00001785,0.00000585,0.00000176,0.00003404,-0.00000223,0.00
 003696,0.00000671,-0.00000042,-0.00000115,-0.00027033,0.00010132,-0.00
 031048,0.00000448,0.00000195,-0.00000011,-0.00004503,0.00001398,0.0000
 2050,-0.00004642,-0.00000628,0.00001231,0.00002044,0.00022727,-0.00010
 549,0.00000612,0.00001397,-0.00000522,0.00000071,0.00001671,-0.0000036
 4,0.,0.00000130,-0.00000134,0.00000083,0.00000118,0.00000142,0.0000023
 6,0.00000073,-0.00000050,0.00000001,0.00001167,0.00000900,-0.00001093,
 0.00000539,0.00000052,-0.00000430,0.00001363,-0.00001036,-0.00000094,0
 .00000065,-0.00000057,-0.00000244,-0.00000036,0.00000198,-0.00000235,-
 0.00000054,-0.00000173,-0.00005183,-0.00006661,-0.00008023,0.00001622,
 -0.00001024,0.00002349,0.00000995,-0.00001523,-0.00000439,0.00000584,-
 0.00000880,0.00000596,-0.00000195,-0.00001612,0.00001545,0.00000277,-0
 .00002326,-0.00001948,0.00004750,0.00009225,0.00002141,-0.00000148,-0.
 00000012,0.00000088,0.00000352,0.00000902,-0.00000601,-0.00000049,-0.0
 0000152,0.00000062,-0.00001384,0.00001392,0.00005391,-0.00000398,-0.00
 000116,0.00000142,-0.00000035,-0.00000033,0.00002521,-0.00000581,-0.00
 000377,0.00000349,-0.00000860,-0.00000697,-0.00000485,0.00000070,0.000
 00209,0.00000003,-0.00000176,-0.00000349,-0.00000111,-0.00000070,0.000
 00101,0.00000060,-0.00000080,0.00000022,-0.00000031,0.00000029,-0.0000
 0150,0.00000238,0.00000019,0.00000066,-0.00000146,0.00000031,0.0000013
 9,-0.00000037,-0.00000044,0.00000014,0.00000025,-0.00000025,0.00000008
 ,0.00000028,-0.00000415,0.00000695,-0.00000328,0.00000322,-0.00000762,
 0.00000253,0.00000130,-0.00000009,-0.00000191,0.00000084,0.00000671,0.
 00000084,0.00000122,0.00000038,0.00000029,0.00000247,0.00000099,0.0000
 0061,0.00000394,0.00000019,0.00000300,-0.00000124,-0.00000585,-0.00000
 479,-0.00000236,0.00000574,0.00000607,-0.00000134,-0.00000017,0.000000
 05,0.00000006,-0.00000032,-0.00000016,0.00000012,0.00000032,0.00000060
 ,-0.00000181,0.00000023,-0.00000079,0.00000040,-0.00000036,-0.00000006
 ,0.00000032,0.00000003,-0.00000020,0.00000028,-0.00000039,-0.00000021,
 0.00000004,-0.00000012,0.00000003,-0.00000137,0.00000084,0.00000143,0.
 00001580,0.00000828,0.00002520,-0.00005027,0.00003665,0.00005173,0.000
 00443,0.00003558,0.00000320,-0.00000004,0.00000106,0.00000685,-0.00000
 018,0.00000504,0.00000128,0.00000628,-0.00000391,-0.00000635,0.0000067
 7,0.00000376,-0.00000171,-0.00000022,0.00000384,0.00000084,-0.00000060
 ,0.00000002,0.00000421,-0.00000762,-0.00001794,-0.00001999,-0.00000140
 ,0.00000394,0.00000390,-0.00000816,-0.00000541,-0.00001033,0.00000258,
 0.00000385,0.00000442,-0.00000077,0.00000121,0.00000612,-0.00001398,-0
 .00000075,0.00000726,-0.00000526,-0.00001457,-0.00000132,-0.00007414,-
 0.00009007,-0.00004204,0.00059304,-0.00132472,-0.00082660,0.01890218,0
 .00048982,0.01394100,0.00054244,0.00007869,0.00247292,-0.13079985,-0.0
 1080230,-0.16891896,0.00070952,0.00223751,-0.00004108,0.00000796,-0.00
 010235,-0.00031456,-0.00097790,-0.00067178,0.00010958,-0.00007953,-0.0
 0009966,0.00012830,-0.01020696,0.00064701,-0.00951756,-0.01331470,-0.0
 0415139,-0.01074127,0.13515372,0.01390796,0.17470465,-0.00048124,-0.00
 006129,-0.00031328,0.00010096,-0.00001941,0.00003271,-0.00083028,0.000
 25914,0.00063882,-0.00003075,-0.00000818,0.00003853,0.00001301,-0.0000
 9266,-0.00013893,0.00000114,0.00000255,0.00000752,-0.00005478,-0.00009
 811,-0.00001840,-0.00003816,-0.00001490,0.00001572,0.00146895,-0.00013
 633,-0.00009154,0.00000990,0.00001377,-0.00000276,-0.00008291,0.000195
 75,-0.00003581,0.00000718,-0.00001540,0.00000493,-0.00007996,0.0000367
 5,-0.00001114,-0.00000322,0.00000336,-0.00000650,-0.00000769,0.0000031
 1,-0.00005490,0.00001779,-0.00000270,-0.00000750,0.00003770,-0.0000453
 1,-0.00005139,-0.00000928,0.00000411,0.00000024,0.00004373,0.00000617,
 -0.00004363,-0.00000563,-0.00000343,0.00000251,0.00002127,-0.00001277,
 0.00000119,0.00004599,0.00002475,-0.00001567,-0.00014912,-0.00010305,-
 0.00003246,-0.00001353,-0.00004481,-0.00001452,-0.00001889,-0.00002717
 ,-0.00003139,-0.00000478,0.00000043,0.00000951,-0.00000067,0.00000177,
 0.00000271,-0.00000134,0.00000046,-0.00000070,-0.00001246,-0.00000238,
 0.00000846,0.00000588,0.00001744,0.00004250,0.00015831,0.00001957,-0.0
 0003344,0.00000294,-0.00000152,0.00000157,0.00000173,0.00000063,-0.000
 00215,0.00000321,0.00000187,0.00000108,-0.00002091,-0.00000338,0.00002
 148,-0.00000916,0.00000299,-0.00000291,-0.00000745,0.00000582,-0.00000
 222,-0.00000097,0.00001497,-0.00001402,0.00000572,0.00000913,0.0000032
 3,0.00000886,0.00000510,-0.00000580,0.00000854,0.00000299,-0.00000241,
 0.00000213,0.00000035,-0.00000028,-0.00000995,-0.00000650,0.00000018,0
 .00000088,0.00000251,-0.00000014,-0.00000734,0.00001025,0.00000497,0.0
 0000606,0.00000196,-0.00000070,-0.00000093,0.00000108,0.00000064,-0.00
 000157,0.00000250,-0.00000441,-0.00000376,-0.00000270,0.00000081,0.000
 00354,0.00000059,-0.00000235,0.00001453,-0.00000665,0.00000610,-0.0000
 0127,-0.00000099,0.00000245,0.00000134,-0.00000049,-0.00000106,-0.0000
 0072,0.00000102,-0.00000741,-0.00000200,-0.00000336,0.00000363,0.00000
 011,-0.00000156,0.00000075,0.00000106,-0.00000028,0.00000047,0.0000017
 5,-0.00000049,0.00000049,-0.00000072,-0.00001330,0.00000162,-0.0000124
 9,0.00002231,-0.00001733,-0.00000331,-0.00000321,0.00001652,0.00000053
 ,-0.00000335,-0.00000064,-0.00001649,-0.00001075,0.00000497,-0.0000044
 1,-0.00000361,-0.00000388,0.00003886,-0.00011741,0.00005235,-0.0002255
 2,0.00011774,-0.00000200,-0.00003837,-0.00008859,0.00001904,0.00000053
 ,0.00000063,-0.00000080,-0.00000074,0.00000049,-0.00000069,0.00000023,
 -0.00000089,-0.00000087,0.00000248,-0.00000031,0.00000093,-0.00000074,
 -0.00000005,0.00000019,-0.00000006,0.00000118,-0.00000060,-0.00000031,
 -0.00000065,0.00000008,0.00000002,0.00000028,0.00000004,0.00000078,-0.
 00000073,-0.00000178,-0.00000328,0.00000837,-0.00001289,-0.00000018,0.
 00001859,0.00001031,-0.00000177,-0.00001387,-0.00001310,0.00000064,-0.
 00000347,-0.00000140,-0.00000016,-0.00000015,0.00000091,-0.00000468,0.
 00000370,0.00000329,-0.00000231,-0.00000081,0.00000137,0.00000265,0.00
 000046,-0.00000013,-0.00000085,0.00000196,-0.00000098,0.00005910,0.000
 06233,0.00004694,0.00000756,0.00000523,0.00000065,0.00000025,0.0000057
 6,-0.00000156,0.00000011,-0.00000235,0.00000107,0.00000116,0.00000371,
 0.00000320,-0.00000023,0.00000805,0.00000318,0.00000222,-0.00000690,-0
 .00000035,-0.00001263,-0.00001152,-0.00001315,-0.01436112,-0.00916494,
 0.03479831,0.00525003,0.01415645,-0.01160368,-0.00013092,0.00476501,0.
 00230265,0.00004909,0.00241710,-0.00287574,-0.06717380,-0.03778444,0.0
 4559280,0.00052101,0.00082121,-0.00134333,-0.00032144,-0.00048493,0.00
 050576,-0.00010609,0.00026014,0.00004899,0.00010380,-0.00021308,0.0000
 6872,-0.00057325,0.00008437,0.00023155,0.00015736,0.00012450,-0.000132
 86,0.07669398,-0.00014819,-0.00016289,-0.00018635,0.00005005,-0.000022
 31,0.00003011,-0.00028461,-0.00006360,0.00034411,-0.00001641,-0.000001
 64,0.00002923,-0.00006028,-0.00008211,-0.00020754,-0.00000689,0.000004
 65,0.00000014,0.00006228,0.00004384,-0.00008297,-0.00000525,-0.0000079
 0,0.00000474,0.00045422,0.00007303,0.00011348,0.00000566,0.00000615,-0
 .00000187,-0.00002853,0.00000557,0.00003102,0.00000339,-0.00001101,0.0
 0000234,-0.00006197,-0.00010248,-0.00001195,0.00000304,0.00000168,-0.0
 0000016,0.00005980,0.00014690,0.00006473,0.00001069,-0.00000314,-0.000
 00159,-0.00009076,0.00004537,-0.00002083,-0.00000800,0.00000207,0.0000
 0101,0.00017631,0.00000612,-0.00001717,-0.00000375,0.00000193,0.000002
 13,0.00001596,-0.00000668,-0.00000938,0.00001519,0.00001367,-0.0000061
 3,-0.00004594,-0.00009436,0.00010913,0.00000376,0.00001194,-0.00002306
 ,-0.00000218,-0.00001795,-0.00000763,-0.00000652,0.00000143,0.00000577
 ,-0.00000183,0.00000054,0.00000002,-0.00000242,-0.00000202,-0.00000056
 ,0.00003080,-0.00001190,-0.00001065,0.00001053,-0.00002111,-0.00007445
 ,-0.00042556,-0.00028450,0.00009531,0.00000264,-0.00000125,-0.00000069
 ,0.00000069,-0.00000007,-0.00000038,0.00000147,0.00000068,0.00000022,0
 .00000337,0.00000928,-0.00000197,-0.00000749,-0.00000317,-0.00000117,-
 0.00000391,0.00000673,-0.00000446,-0.00005319,-0.00007130,-0.00000240,
 -0.00000170,0.00001146,-0.00000407,0.00001532,0.00001526,0.00001452,-0
 .00001602,-0.00001413,-0.00001319,0.00000255,-0.00000087,-0.00000027,-
 0.00000722,-0.00000035,0.00000098,0.00000076,0.00000164,-0.00000047,-0
 .00000563,0.00000712,0.00000173,0.00000399,0.00000153,-0.00000147,0.00
 000156,0.00000319,-0.00000096,0.00000478,0.00000409,0.00001134,0.00000
 009,0.00000313,-0.00000092,-0.00000025,0.00000238,-0.00000245,0.000003
 65,0.00000031,-0.00000799,0.00000329,-0.00000312,0.00000035,0.00000027
 ,0.00000009,-0.00000168,0.00000234,0.00000234,-0.00000173,0.00000004,-
 0.00000119,0.00000143,0.00000061,-0.00000091,0.00000019,0.00000042,-0.
 00000017,-0.00000049,-0.00000041,0.00000059,-0.00000007,0.00000234,-0.
 00001018,0.00000738,-0.00001534,0.00001507,-0.00000379,-0.00000576,-0.
 00000055,-0.00000917,-0.00000406,-0.00000921,0.00000074,0.00002485,0.0
 0001730,-0.00000528,0.00000059,-0.00000361,0.00000414,-0.00006843,-0.0
 0016175,0.00014002,0.00049113,0.00060993,-0.00026489,0.00012629,-0.000
 05148,-0.00008365,0.00000006,0.00000045,-0.00000041,-0.00000017,-0.000
 00018,-0.00000040,-0.00000005,-0.00000032,0.00000009,0.00000144,-0.000
 00048,0.00000033,0.00000031,-0.00000032,-0.00000059,-0.00000022,0.0000
 0070,0.00000019,-0.00000042,0.00000021,0.,-0.00000092,0.00000055,-0.00
 000047,0.00000155,-0.00000068,-0.00000070,-0.00000868,0.00000307,0.000
 00075,0.00000062,-0.00001108,-0.00000477,0.00000444,0.00000009,0.00000
 212,-0.00000092,0.00000097,0.00000131,0.00000007,-0.00000023,0.0000006
 7,-0.00000512,0.00000330,0.00000270,-0.00000277,-0.00000099,0.00000051
 ,0.00000281,0.00000152,-0.00000118,0.00000016,-0.00000154,0.00000184,0
 .00004154,0.00002112,0.00003998,0.00001155,0.00000756,-0.00000092,0.00
 000487,0.00000521,0.00000134,-0.00000003,-0.00000312,0.00000157,0.0000
 0430,0.00000265,-0.00000758,-0.00000092,0.00001331,-0.00000330,-0.0000
 0210,0.00000183,0.00000156,0.00002684,0.00001377,0.00002014,0.00243299
 ,0.01658736,-0.00194036,-0.00165223,-0.01965877,0.02712058,0.00522472,
 0.00135956,0.00087492,-0.00184738,-0.00104884,0.00061418,-0.03004642,-
 0.13041610,0.09384926,0.00031797,-0.00019657,0.00017570,-0.00040782,-0
 .00124532,0.00105773,-0.00024180,0.00049352,-0.00015519,0.00013957,-0.
 00002479,-0.00002609,0.00061536,-0.00005405,-0.00053016,0.00007789,0.0
 0038437,-0.00032181,0.02510270,0.13391417,-0.00037081,-0.00000333,-0.0
 0021599,0.00000604,0.00001970,-0.00001239,-0.00001694,0.00031511,-0.00
 064557,0.00000083,0.00000733,-0.00000529,-0.00022447,-0.00000208,-0.00
 020003,0.00001422,-0.00000184,0.00000253,-0.00007361,-0.00004258,0.000
 05067,-0.00002209,-0.00001140,-0.00001893,0.00018472,0.00027734,-0.001
 76781,0.00001262,-0.00000118,0.00000639,0.00016657,-0.00014131,-0.0001
 4373,-0.00000095,0.00000113,0.00000202,-0.00000217,0.00007302,0.000050
 32,-0.00000857,0.00000738,-0.00000267,-0.00004422,-0.00001500,-0.00007
 537,0.00000085,-0.00000307,0.00000318,0.00010288,-0.00005039,0.0000455
 9,-0.00000204,-0.00000551,-0.00000420,-0.00010835,0.00000011,0.0000246
 9,0.00000196,0.00000321,-0.00000067,0.00002720,0.00002040,0.00000564,-
 0.00002405,-0.00000746,0.00000218,0.00006992,0.00006018,0.00007280,0.0
 0001038,0.00005753,-0.00001758,0.00001841,-0.00001821,0.00000808,0.000
 01243,-0.00000674,-0.00000704,-0.00000463,-0.00000111,-0.00000474,0.00
 000033,-0.00000073,0.00000044,-0.00002437,-0.00001228,-0.00002295,0.00
 001370,0.00001977,0.00005279,0.00034087,0.00025157,0.00004384,-0.00000
 086,-0.00000044,-0.00000233,-0.00000103,-0.00000041,0.00000012,-0.0000
 0080,-0.00000006,0.00000025,-0.00001323,-0.00000152,0.00001460,-0.0000
 2093,-0.00000425,-0.00001211,-0.00000661,0.00001240,0.00000002,-0.0000
 5576,-0.00003957,0.00002332,-0.00000292,-0.00001828,-0.00000487,0.0000
 3908,0.00001662,0.00001574,0.00001447,0.00001264,0.00000606,-0.0000009
 0,0.00000027,-0.00000173,-0.00000660,-0.00000682,0.00000206,0.00000094
 ,0.00000050,0.00000035,-0.00000414,0.00000849,0.00000145,0.00000176,0.
 00000060,-0.00000065,0.00001661,0.00002469,0.00001852,0.00001055,0.000
 00091,0.00002013,0.00000240,0.00000512,0.00000452,-0.00000098,-0.00000
 246,-0.00000007,-0.00000721,0.00000645,0.00000108,-0.00000157,0.000000
 99,-0.00000011,0.00000133,-0.00000162,0.00000107,0.00000088,-0.0000002
 8,0.00000224,0.00000077,0.00000247,-0.00000043,-0.00000002,-0.00000150
 ,0.00000110,-0.00000038,-0.00000006,0.00000113,-0.00000002,0.00000005,
 -0.00000050,0.00000973,-0.00000373,0.00000823,0.00000744,0.00000174,-0
 .00000574,0.00000492,-0.00000225,0.00000472,0.00000126,-0.00000281,-0.
 00000341,-0.00002236,-0.00001498,0.00000373,-0.00000852,-0.00000583,-0
 .00000362,-0.00001276,-0.00010379,0.00005744,-0.00037404,-0.00056918,0
 .00035206,-0.00008480,0.00000944,0.00001901,0.00000104,0.00000016,-0.0
 0000019,0.00000026,-0.00000038,0.00000203,-0.00000031,0.00000078,0.000
 00041,0.00000015,-0.00000025,-0.00000015,0.00000079,0.,0.00000020,0.00
 000008,0.00000016,0.00000025,-0.00000080,0.00000086,-0.00000107,-0.000
 00002,-0.00000127,0.00000102,0.00000162,0.00000002,-0.00000017,-0.0000
 1175,0.00000436,-0.00000862,-0.00000356,-0.00000871,-0.00000075,-0.000
 00459,0.00000132,-0.00000169,0.00000005,-0.00000147,0.00000158,0.00000
 030,-0.00000378,-0.00000219,-0.00000629,0.00000513,0.00000708,-0.00000
 623,-0.00000319,-0.00000247,-0.00000118,-0.00000416,-0.00000092,0.0000
 0055,-0.00000243,-0.00000064,0.00004249,0.00001843,-0.00008938,0.00000
 844,0.00000602,-0.00000236,0.00000318,-0.00000025,-0.00000038,-0.00000
 323,-0.00000064,0.00000215,0.00000034,-0.00000276,-0.00000202,-0.00000
 796,0.00002530,0.00000481,-0.00000711,0.00000403,0.00000079,-0.0000041
 5,-0.00001917,-0.00002890,0.02456140,0.00712337,-0.01160239,0.00329466
 ,0.01103841,-0.00538540,0.00106719,0.00230787,0.00496170,0.00122478,-0
 .00220570,-0.00037963,0.03853435,0.10279225,-0.17965987,0.00039576,0.0
 0071584,-0.00103939,-0.00043326,-0.00073460,0.00048578,0.00007760,-0.0
 0014884,-0.00000195,-0.00016699,-0.00020995,0.00038755,-0.00027329,-0.
 00025886,0.00006945,-0.00023560,0.00016295,-0.00002302,-0.06759104,-0.
 12071398,0.19455924\\0.00000115,-0.00000640,0.00000063,0.00000546,-0.0
 0000023,0.,0.00000381,-0.00000680,0.00000228,0.00001011,0.00001209,-0.
 00000554,-0.00000243,0.00000871,-0.00000217,0.00000146,0.00000053,0.00
 000093,0.00000045,0.00000245,-0.00000047,-0.00000231,0.00000196,0.0000
 0078,-0.00000583,-0.00000188,-0.00000202,0.00000038,0.00000059,-0.0000
 0307,0.00000137,-0.00000270,0.00000317,-0.00000003,0.00000253,-0.00000
 225,-0.00000064,-0.00000042,0.00000240,0.00000025,0.00000165,0.0000020
 1,0.00000305,0.00000591,0.00000321,-0.00000114,0.00000147,-0.00000223,
 0.00000071,0.00000142,0.00000485,0.00000064,0.00000122,-0.00000314,0.0
 0000098,0.00000326,0.00000065,0.00000084,0.00000113,-0.00000312,0.0000
 0002,-0.00000062,0.00000304,-0.00000491,-0.00000110,-0.00000161,0.0000
 0085,-0.00000488,-0.00000225,-0.00000315,0.00000260,-0.00000042,0.0000
 0034,-0.00000071,-0.00000292,0.00000177,0.00000021,0.00000314,0.000001
 39,0.00000346,0.00000175,0.00000179,0.00000183,0.00000184,-0.00000171,
 0.00000224,0.00000356,0.00000302,-0.00000253,0.00000557,-0.00000454,0.
 00000188,0.00000518,-0.00000076,0.00000135,-0.00000422,0.00000060,0.00
 000233,-0.00000230,-0.00000065,0.00000037,-0.00000204,-0.00000007,-0.0
 0000181,0.00000212,0.00000130,0.00000065,0.00000254,0.00000102,-0.0000
 0034,0.00000387,0.00001572,-0.00000953,0.00000924,-0.00000152,-0.00000
 310,-0.00000316,-0.00000490,-0.00000108,-0.00000096,-0.00000356,-0.000
 01040,-0.00000213,0.00000075,0.00000142,-0.00000018,0.00000077,0.00000
 189,0.00000425,-0.00000065,0.00000073,-0.00000393,0.00000068,0.0000001
 6,0.00000015,-0.00000112,0.00000035,-0.00000394,-0.00000011,0.00000126
 ,-0.00000194,-0.00000168,0.00000073,-0.00000328,-0.00000106,0.00000110
 ,-0.00000313,0.00000017,0.00000094,0.00000325,0.00000087,0.00000035,0.
 00000228,0.00000053,-0.00000046,0.00000239,0.00000181,0.00000354,0.000
 00106,0.00000137,0.00000235,0.00000129,0.00000192,0.00000272,0.0000024
 3,0.00000188,0.00000202,0.00000316,0.00000090,0.00000118,0.00000217,0.
 00000182,0.00000282,0.00000164,0.00000260,0.00000228,0.00000447,0.0000
 0253,0.00000297,0.00000020,0.00000242,0.00000241,0.00000362,0.00000172
 ,-0.00000017,0.00000571,0.00000217,0.00000012,0.00000563,0.00000154,-0
 .00000099,0.00000602,0.00000050,-0.00000109,0.00000415,0.00000533,0.00
 000228,0.00000458,0.00000091,-0.00000127,0.00000453,-0.00000053,0.0000
 0108,-0.00000476,-0.00000117,0.00000017,-0.00000451,-0.00000044,0.0000
 0160,-0.00000491,0.00000057,0.00000269,-0.00000312,0.00000066,0.000003
 55,-0.00000298,0.00000118,0.00000314,-0.00000169,-0.00000022,0.0000003
 1,-0.00000081,-0.00000088,-0.00000078,-0.00000180,-0.00000031,0.000000
 47,-0.00000238,0.00000002,-0.00000139,0.00000279,-0.00000090,-0.000001
 42,0.00000157,-0.00000080,-0.00000220,0.00000282,0.00000148,0.00000206
 ,0.00000248,0.00000058,0.00000128,0.00000105,0.00000108,0.00000075,0.0
 0000245,0.00000093,-0.00000055,0.00000441,0.00000078,-0.00000092,0.000
 00523,0.00000119,0.00000059,0.00000486,-0.00002028,0.00000079,-0.00001
 612,-0.00000352,-0.00000373,-0.00000583,-0.00000134,0.00000045,-0.0000
 0558,-0.00000056,-0.00000090,-0.00000248,-0.00000232,-0.00000574,-0.00
 000688,-0.00000422,-0.00000029,-0.00000569,-0.00000141,-0.00000071,-0.
 00000284,0.00000698,0.00000634,-0.00000712,0.00001909,-0.00001051,-0.0
 0001414,-0.00000506,-0.00000355,0.00000592,-0.00000513,-0.00000054,-0.
 00001168,-0.00000219,0.00000113,-0.00000576,-0.00001467,0.00000123,0.0
 0000785,-0.00000772,-0.00000293,-0.00000236,-0.00000453,-0.00000074,-0
 .00000034,-0.00000387,-0.00001393,0.00000581,0.00000107,-0.00000272,0.
 00000019,0.00000008,-0.00000102,-0.00000051,-0.00000205,-0.00000307,0.
 00000025,-0.00000047,-0.00000696,0.00000328\\\@
 The archive entry for this job was punched.


 ALL MEN WHO EXPLORE
 DEPLORE
 THAT FRUSTRATING HURDLE
 THE GIRDLE.

         -- COLIN FLETCHER
 Job cpu time:      10 days 20 hours 56 minutes 21.5 seconds.
 Elapsed time:       0 days  2 hours 45 minutes 43.4 seconds.
 File lengths (MBytes):  RWF=  16652 Int=      0 D2E=      0 Chk=    575 Scr=      1
 Normal termination of Gaussian 16 at Thu Jan  9 03:18:14 2025.
3490705.36user 3980.84system 10:18:04elapsed 9423%CPU (0avgtext+0avgdata 64211112maxresident)k
0inputs+32138848outputs (42252major+44139300minor)pagefaults 0swaps
