 Entering Gaussian System, Link 0=g16
 Initial command:
 /common/software/install/migrated/gaussian/g16.c01.avx2/g16/l1.exe "/tmp/quach062/28168166/Gau-3608998.inp" -scrdir="/tmp/quach062/28168166/"
 Entering Link 1 = /common/software/install/migrated/gaussian/g16.c01.avx2/g16/l1.exe PID=   3608999.
  
 Copyright (c) 1988-2019, Gaussian, Inc.  All Rights Reserved.
  
 This is part of the Gaussian(R) 16 program.  It is based on
 the Gaussian(R) 09 system (copyright 2009, Gaussian, Inc.),
 the Gaussian(R) 03 system (copyright 2003, Gaussian, Inc.),
 the Gaussian(R) 98 system (copyright 1998, Gaussian, Inc.),
 the Gaussian(R) 94 system (copyright 1995, Gaussian, Inc.),
 the Gaussian 92(TM) system (copyright 1992, Gaussian, Inc.),
 the Gaussian 90(TM) system (copyright 1990, Gaussian, Inc.),
 the Gaussian 88(TM) system (copyright 1988, Gaussian, Inc.),
 the Gaussian 86(TM) system (copyright 1986, Carnegie Mellon
 University), and the Gaussian 82(TM) system (copyright 1983,
 Carnegie Mellon University). Gaussian is a federally registered
 trademark of Gaussian, Inc.
  
 This software contains proprietary and confidential information,
 including trade secrets, belonging to Gaussian, Inc.
  
 This software is provided under written license and may be
 used, copied, transmitted, or stored only in accord with that
 written license.
  
 The following legend is applicable only to US Government
 contracts under FAR:
  
                    RESTRICTED RIGHTS LEGEND
  
 Use, reproduction and disclosure by the US Government is
 subject to restrictions as set forth in subparagraphs (a)
 and (c) of the Commercial Computer Software - Restricted
 Rights clause in FAR 52.227-19.
  
 Gaussian, Inc.
 340 Quinnipiac St., Bldg. 40, Wallingford CT 06492
  
  
 ---------------------------------------------------------------
 Warning -- This program may not be used in any manner that
 competes with the business of Gaussian, Inc. or will provide
 assistance to any competitor of Gaussian, Inc.  The licensee
 of this program is prohibited from giving any competitor of
 Gaussian, Inc. access to this program.  By using this program,
 the user acknowledges that Gaussian, Inc. is engaged in the
 business of creating and licensing software in the field of
 computational chemistry and represents and warrants to the
 licensee that it is not a competitor of Gaussian, Inc. and that
 it will not use this program in any manner prohibited above.
 ---------------------------------------------------------------
  

 Cite this work as:
 Gaussian 16, Revision C.01,
 M. J. Frisch, G. W. Trucks, H. B. Schlegel, G. E. Scuseria, 
 M. A. Robb, J. R. Cheeseman, G. Scalmani, V. Barone, 
 G. A. Petersson, H. Nakatsuji, X. Li, M. Caricato, A. V. Marenich, 
 J. Bloino, B. G. Janesko, R. Gomperts, B. Mennucci, H. P. Hratchian, 
 J. V. Ortiz, A. F. Izmaylov, J. L. Sonnenberg, D. Williams-Young, 
 F. Ding, F. Lipparini, F. Egidi, J. Goings, B. Peng, A. Petrone, 
 T. Henderson, D. Ranasinghe, V. G. Zakrzewski, J. Gao, N. Rega, 
 G. Zheng, W. Liang, M. Hada, M. Ehara, K. Toyota, R. Fukuda, 
 J. Hasegawa, M. Ishida, T. Nakajima, Y. Honda, O. Kitao, H. Nakai, 
 T. Vreven, K. Throssell, J. A. Montgomery, Jr., J. E. Peralta, 
 F. Ogliaro, M. J. Bearpark, J. J. Heyd, E. N. Brothers, K. N. Kudin, 
 V. N. Staroverov, T. A. Keith, R. Kobayashi, J. Normand, 
 K. Raghavachari, A. P. Rendell, J. C. Burant, S. S. Iyengar, 
 J. Tomasi, M. Cossi, J. M. Millam, M. Klene, C. Adamo, R. Cammi, 
 J. W. Ochterski, R. L. Martin, K. Morokuma, O. Farkas, 
 J. B. Foresman, and D. J. Fox, Gaussian, Inc., Wallingford CT, 2019.
 
 ******************************************
 Gaussian 16:  ES64L-G16RevC.01  3-Jul-2019
                17-Dec-2024 
 ******************************************
 %chk=CoII_D_1.chk
 %lindaworkers=in-cn0088
 %nprocshared=128
 Will use up to  128 processors via shared memory.
 %mem=59800MB
 SetLPE:  input flags=" -workerwait 900 -opt "Tsnet.Node.lindarsharg: ssh " "
 SetLPE:    new flags=" -workerwait 900 -opt "Tsnet.Node.lindarsharg: ssh " -opt 'Tsnet.Node.lindarsharg: ssh'  -nodelist 'in-cn0088' -env GAUSS_MDEF=7838105600 -env GAUSS_EXEDIR="/common/software/install/migrated/gaussian/g16.c01.avx2/g16/bsd:/common/software/install/migrated/gaussian/g16.c01.avx2/g16/local:/common/software/install/migrated/gaussian/g16.c01.avx2/g16/extras:/common/software/install/migrated/gaussian/g16.c01.avx2/g16""
 Will use up to    1 processors via Linda.
 ----------------------------------------------------------------------
 # opt=calcfc # freq # m06l/genecp/auto # nosymm integral=grid=ultrafin
 e # scf=(tight,intrep,xqc) # SCRF=(SMD,Solvent=n,n-DiMethylFormamide)
 ----------------------------------------------------------------------
 1/10=4,18=20,19=15,26=6,38=1/1,3;
 2/9=110,12=2,15=1,17=6,18=5,40=1/2;
 3/5=7,11=2,16=1,17=8,25=1,30=1,70=32201,71=2,72=148,74=-53,75=-5,82=28,140=1/1,2,3;
 4//1;
 5/5=2,8=3,13=1,17=20,32=2,38=5,53=148/2,8;
 8/6=4,10=90,11=11/1;
 11/6=1,8=1,9=11,15=111,16=1,31=1/1,2,10;
 10/6=1,13=1,31=1/2;
 6/7=2,8=2,9=2,10=2,28=1/1;
 7/10=1,25=1,30=1/1,2,3,16;
 1/10=4,18=20,19=15,26=6/3(2);
 2/9=110,15=1/2;
 99//99;
 2/9=110,15=1/2;
 3/5=7,6=1,11=2,16=1,17=8,25=1,30=1,70=32205,71=1,72=148,74=-53,75=-5,82=7/1,2,3;
 4/5=5,16=3,69=1/1;
 5/5=2,8=3,13=1,17=20,32=2,38=5,53=148/2,8;
 7/30=1/1,2,3,16;
 1/18=20,19=15,26=6/3(-5);
 2/9=110,15=1/2;
 6/7=2,8=2,9=2,10=2,19=2,28=1/1;
 99/9=1/99;
 -------------------
 Title Card Required
 -------------------
 Symbolic Z-matrix:
 Charge =  0 Multiplicity = 2
 Co                   -0.41859  -0.42717  -3.73308 
 O                     0.78963  -1.90421  -3.87999 
 O                    -1.76537  -1.74945  -3.43767 
 N                     0.85376   0.79686  -4.18865 
 N                    -1.54936   0.985    -3.41267 
 C                     2.82392  -3.10368  -4.06064 
 C                    -3.91588  -2.701    -3.16371 
 C                     2.06497  -1.88282  -4.11887 
 C                    -3.03219  -1.57205  -3.22085 
 C                     2.77192  -0.67665  -4.4472 
 C                    -3.60484  -0.26761  -3.0278 
 C                     4.87851  -1.89278  -4.72389 
 C                    -5.8332   -1.2229   -2.66074 
 C                     2.14037  -4.4091   -3.63564 
 C                    -3.37225  -4.10843  -3.43976 
 C                     4.17804  -3.06561  -4.36707 
 C                    -5.26484  -2.49095  -2.88444 
 C                     4.15243  -0.71729  -4.74719 
 C                    -4.97864  -0.13507  -2.74603 
 C                     6.37022  -1.97591  -5.04821 
 C                    -7.3173   -1.01596  -2.34554 
 C                     2.11486   0.5927   -4.49062 
 C                    -2.82216   0.93071  -3.10323 
 C                     0.31045   2.15023  -4.37247 
 C                    -0.83321   2.28818  -3.3676 
 C                     0.98484  -4.7549   -4.587 
 C                     1.59695  -4.25975  -2.20562 
 C                     3.1054   -5.59637  -3.6372 
 C                    -2.26352  -4.47023  -2.43945 
 C                    -4.45553  -5.1832   -3.32944 
 C                    -2.80955  -4.16768  -4.86909 
 C                     6.95689  -0.61138  -5.40492 
 C                     7.13425  -2.5262   -3.83597 
 C                     6.58785  -2.92007  -6.23855 
 C                    -7.95362  -0.11972  -3.41659 
 C                    -7.46381  -0.33112  -0.97996 
 C                    -8.09176  -2.33282  -2.30447 
 C                    -0.17368   2.32362  -5.81399 
 C                    -1.65098   3.55172  -3.61357 
 C                    -0.95365   3.61478  -6.01301 
 C                    -2.13361   3.68068  -5.05203 
 H                     4.74239  -3.99206  -4.3279 
 H                    -5.91519  -3.3559   -2.83929 
 H                     4.63133   0.22578  -5.00024 
 H                    -5.36314   0.87355  -2.59578 
 H                     2.71666   1.45387  -4.79735 
 H                    -3.35361   1.85773  -2.88141 
 H                     1.08158   2.90301  -4.15462 
 H                    -0.38877   2.34992  -2.36489 
 H                     0.51858  -5.70079  -4.28717 
 H                     0.22518  -3.97344  -4.5809 
 H                     1.34742  -4.87878  -5.61391 
 H                     2.41261  -4.07723  -1.49707 
 H                     0.88904  -3.43234  -2.13697 
 H                     1.08628  -5.17764  -1.89159 
 H                     2.57131  -6.49848  -3.32194 
 H                     3.52025  -5.79335  -4.63124 
 H                     3.94221  -5.45513  -2.94558 
 H                    -1.89507  -5.48461  -2.63322 
 H                    -1.42725  -3.775    -2.51376 
 H                    -2.64242  -4.44945  -1.41119 
 H                    -4.01654  -6.16367  -3.54045 
 H                    -4.89328  -5.23094  -2.32689 
 H                    -5.26988  -5.03057  -4.04495 
 H                    -3.59988  -3.98232  -5.60514 
 H                    -2.0224   -3.42612  -5.01437 
 H                    -2.39182  -5.15988  -5.07672 
 H                     8.023    -0.71106  -5.63182 
 H                     6.47332  -0.17491  -6.28456 
 H                     6.86202   0.10309  -4.58113 
 H                     8.20553  -2.60062  -4.05365 
 H                     7.01498  -1.87479  -2.96396 
 H                     6.78551  -3.5246   -3.55553 
 H                     6.21887  -3.92848  -6.02873 
 H                     6.07061  -2.55586  -7.13229 
 H                     7.65366  -3.00229  -6.47918 
 H                    -9.01534   0.04771  -3.2034 
 H                    -7.46834   0.85958  -3.46425 
 H                    -7.88011  -0.57602  -4.40927 
 H                    -7.03167  -0.94322  -0.18148 
 H                    -6.96366   0.64176  -0.96062 
 H                    -8.51982  -0.1647   -0.73923 
 H                    -9.14412  -2.13777  -2.07516 
 H                    -8.05812  -2.85992  -3.26322 
 H                    -7.70933  -3.01121  -1.53525 
 H                    -0.81474   1.46402  -6.05587 
 H                     0.68876   2.26989  -6.48763 
 H                    -0.99381   4.3999   -3.38117 
 H                    -2.47929   3.623    -2.90288 
 H                    -1.293     3.69002  -7.05131 
 H                    -0.29536   4.47736  -5.83822 
 H                    -2.68528   4.61797  -5.17829 
 H                    -2.83887   2.87118  -5.28408 
 

 GradGradGradGradGradGradGradGradGradGradGradGradGradGradGradGradGradGrad
 Berny optimization.
 Initialization pass.
                           ----------------------------
                           !    Initial Parameters    !
                           ! (Angstroms and Degrees)  !
 --------------------------                            --------------------------
 ! Name  Definition              Value          Derivative Info.                !
 --------------------------------------------------------------------------------
 ! R1    R(1,2)                  1.9139         calculate D2E/DX2 analytically  !
 ! R2    R(1,3)                  1.9104         calculate D2E/DX2 analytically  !
 ! R3    R(1,4)                  1.8234         calculate D2E/DX2 analytically  !
 ! R4    R(1,5)                  1.8373         calculate D2E/DX2 analytically  !
 ! R5    R(2,8)                  1.2977         calculate D2E/DX2 analytically  !
 ! R6    R(3,9)                  1.2974         calculate D2E/DX2 analytically  !
 ! R7    R(4,22)                 1.3127         calculate D2E/DX2 analytically  !
 ! R8    R(4,24)                 1.4699         calculate D2E/DX2 analytically  !
 ! R9    R(5,23)                 1.311          calculate D2E/DX2 analytically  !
 ! R10   R(5,25)                 1.4877         calculate D2E/DX2 analytically  !
 ! R11   R(6,8)                  1.4387         calculate D2E/DX2 analytically  !
 ! R12   R(6,14)                 1.5336         calculate D2E/DX2 analytically  !
 ! R13   R(6,16)                 1.3889         calculate D2E/DX2 analytically  !
 ! R14   R(7,9)                  1.4348         calculate D2E/DX2 analytically  !
 ! R15   R(7,15)                 1.5338         calculate D2E/DX2 analytically  !
 ! R16   R(7,17)                 1.3935         calculate D2E/DX2 analytically  !
 ! R17   R(8,10)                 1.4361         calculate D2E/DX2 analytically  !
 ! R18   R(9,11)                 1.4376         calculate D2E/DX2 analytically  !
 ! R19   R(10,18)                1.4133         calculate D2E/DX2 analytically  !
 ! R20   R(10,22)                1.43           calculate D2E/DX2 analytically  !
 ! R21   R(11,19)                1.4086         calculate D2E/DX2 analytically  !
 ! R22   R(11,23)                1.4333         calculate D2E/DX2 analytically  !
 ! R23   R(12,16)                1.4119         calculate D2E/DX2 analytically  !
 ! R24   R(12,18)                1.3819         calculate D2E/DX2 analytically  !
 ! R25   R(12,20)                1.5288         calculate D2E/DX2 analytically  !
 ! R26   R(13,17)                1.4075         calculate D2E/DX2 analytically  !
 ! R27   R(13,19)                1.386          calculate D2E/DX2 analytically  !
 ! R28   R(13,21)                1.5312         calculate D2E/DX2 analytically  !
 ! R29   R(14,26)                1.5362         calculate D2E/DX2 analytically  !
 ! R30   R(14,27)                1.5371         calculate D2E/DX2 analytically  !
 ! R31   R(14,28)                1.53           calculate D2E/DX2 analytically  !
 ! R32   R(15,29)                1.5365         calculate D2E/DX2 analytically  !
 ! R33   R(15,30)                1.53           calculate D2E/DX2 analytically  !
 ! R34   R(15,31)                1.5372         calculate D2E/DX2 analytically  !
 ! R35   R(16,42)                1.0855         calculate D2E/DX2 analytically  !
 ! R36   R(17,43)                1.0831         calculate D2E/DX2 analytically  !
 ! R37   R(18,44)                1.0875         calculate D2E/DX2 analytically  !
 ! R38   R(19,45)                1.0898         calculate D2E/DX2 analytically  !
 ! R39   R(20,32)                1.5275         calculate D2E/DX2 analytically  !
 ! R40   R(20,33)                1.535          calculate D2E/DX2 analytically  !
 ! R41   R(20,34)                1.5348         calculate D2E/DX2 analytically  !
 ! R42   R(21,35)                1.5347         calculate D2E/DX2 analytically  !
 ! R43   R(21,36)                1.5347         calculate D2E/DX2 analytically  !
 ! R44   R(21,37)                1.5283         calculate D2E/DX2 analytically  !
 ! R45   R(22,46)                1.0945         calculate D2E/DX2 analytically  !
 ! R46   R(23,47)                1.0913         calculate D2E/DX2 analytically  !
 ! R47   R(24,25)                1.5286         calculate D2E/DX2 analytically  !
 ! R48   R(24,38)                1.5305         calculate D2E/DX2 analytically  !
 ! R49   R(24,48)                1.0994         calculate D2E/DX2 analytically  !
 ! R50   R(25,39)                1.5251         calculate D2E/DX2 analytically  !
 ! R51   R(25,49)                1.0985         calculate D2E/DX2 analytically  !
 ! R52   R(26,50)                1.0964         calculate D2E/DX2 analytically  !
 ! R53   R(26,51)                1.0899         calculate D2E/DX2 analytically  !
 ! R54   R(26,52)                1.0961         calculate D2E/DX2 analytically  !
 ! R55   R(27,53)                1.0957         calculate D2E/DX2 analytically  !
 ! R56   R(27,54)                1.0911         calculate D2E/DX2 analytically  !
 ! R57   R(27,55)                1.0963         calculate D2E/DX2 analytically  !
 ! R58   R(28,56)                1.0947         calculate D2E/DX2 analytically  !
 ! R59   R(28,57)                1.095          calculate D2E/DX2 analytically  !
 ! R60   R(28,58)                1.0948         calculate D2E/DX2 analytically  !
 ! R61   R(29,59)                1.0965         calculate D2E/DX2 analytically  !
 ! R62   R(29,60)                1.0901         calculate D2E/DX2 analytically  !
 ! R63   R(29,61)                1.096          calculate D2E/DX2 analytically  !
 ! R64   R(30,62)                1.0948         calculate D2E/DX2 analytically  !
 ! R65   R(30,63)                1.095          calculate D2E/DX2 analytically  !
 ! R66   R(30,64)                1.0947         calculate D2E/DX2 analytically  !
 ! R67   R(31,65)                1.0958         calculate D2E/DX2 analytically  !
 ! R68   R(31,66)                1.0912         calculate D2E/DX2 analytically  !
 ! R69   R(31,67)                1.0964         calculate D2E/DX2 analytically  !
 ! R70   R(32,68)                1.0945         calculate D2E/DX2 analytically  !
 ! R71   R(32,69)                1.0946         calculate D2E/DX2 analytically  !
 ! R72   R(32,70)                1.0946         calculate D2E/DX2 analytically  !
 ! R73   R(33,71)                1.0957         calculate D2E/DX2 analytically  !
 ! R74   R(33,72)                1.095          calculate D2E/DX2 analytically  !
 ! R75   R(33,73)                1.0941         calculate D2E/DX2 analytically  !
 ! R76   R(34,74)                1.0941         calculate D2E/DX2 analytically  !
 ! R77   R(34,75)                1.095          calculate D2E/DX2 analytically  !
 ! R78   R(34,76)                1.0957         calculate D2E/DX2 analytically  !
 ! R79   R(35,77)                1.0958         calculate D2E/DX2 analytically  !
 ! R80   R(35,78)                1.094          calculate D2E/DX2 analytically  !
 ! R81   R(35,79)                1.095          calculate D2E/DX2 analytically  !
 ! R82   R(36,80)                1.095          calculate D2E/DX2 analytically  !
 ! R83   R(36,81)                1.0941         calculate D2E/DX2 analytically  !
 ! R84   R(36,82)                1.0958         calculate D2E/DX2 analytically  !
 ! R85   R(37,83)                1.0946         calculate D2E/DX2 analytically  !
 ! R86   R(37,84)                1.0946         calculate D2E/DX2 analytically  !
 ! R87   R(37,85)                1.0946         calculate D2E/DX2 analytically  !
 ! R88   R(38,40)                1.5215         calculate D2E/DX2 analytically  !
 ! R89   R(38,86)                1.0993         calculate D2E/DX2 analytically  !
 ! R90   R(38,87)                1.0957         calculate D2E/DX2 analytically  !
 ! R91   R(39,41)                1.5227         calculate D2E/DX2 analytically  !
 ! R92   R(39,88)                1.0979         calculate D2E/DX2 analytically  !
 ! R93   R(39,89)                1.0937         calculate D2E/DX2 analytically  !
 ! R94   R(40,41)                1.5232         calculate D2E/DX2 analytically  !
 ! R95   R(40,90)                1.0949         calculate D2E/DX2 analytically  !
 ! R96   R(40,91)                1.0991         calculate D2E/DX2 analytically  !
 ! R97   R(41,92)                1.0949         calculate D2E/DX2 analytically  !
 ! R98   R(41,93)                1.0984         calculate D2E/DX2 analytically  !
 ! A1    A(2,1,3)               85.5694         calculate D2E/DX2 analytically  !
 ! A2    A(2,1,4)               93.3469         calculate D2E/DX2 analytically  !
 ! A3    A(3,1,5)               94.0801         calculate D2E/DX2 analytically  !
 ! A4    A(4,1,5)               87.5391         calculate D2E/DX2 analytically  !
 ! A5    A(1,2,8)              128.4491         calculate D2E/DX2 analytically  !
 ! A6    A(1,3,9)              128.2838         calculate D2E/DX2 analytically  !
 ! A7    A(1,4,22)             128.5671         calculate D2E/DX2 analytically  !
 ! A8    A(1,4,24)             113.042          calculate D2E/DX2 analytically  !
 ! A9    A(22,4,24)            118.003          calculate D2E/DX2 analytically  !
 ! A10   A(1,5,23)             127.3633         calculate D2E/DX2 analytically  !
 ! A11   A(1,5,25)             112.4768         calculate D2E/DX2 analytically  !
 ! A12   A(23,5,25)            119.7678         calculate D2E/DX2 analytically  !
 ! A13   A(8,6,14)             119.8945         calculate D2E/DX2 analytically  !
 ! A14   A(8,6,16)             118.8242         calculate D2E/DX2 analytically  !
 ! A15   A(14,6,16)            121.2676         calculate D2E/DX2 analytically  !
 ! A16   A(9,7,15)             119.7709         calculate D2E/DX2 analytically  !
 ! A17   A(9,7,17)             119.051          calculate D2E/DX2 analytically  !
 ! A18   A(15,7,17)            121.164          calculate D2E/DX2 analytically  !
 ! A19   A(2,8,6)              119.8012         calculate D2E/DX2 analytically  !
 ! A20   A(2,8,10)             122.6643         calculate D2E/DX2 analytically  !
 ! A21   A(6,8,10)             117.5345         calculate D2E/DX2 analytically  !
 ! A22   A(3,9,7)              120.0287         calculate D2E/DX2 analytically  !
 ! A23   A(3,9,11)             122.3737         calculate D2E/DX2 analytically  !
 ! A24   A(7,9,11)             117.5974         calculate D2E/DX2 analytically  !
 ! A25   A(8,10,18)            120.3456         calculate D2E/DX2 analytically  !
 ! A26   A(8,10,22)            121.7549         calculate D2E/DX2 analytically  !
 ! A27   A(18,10,22)           117.8985         calculate D2E/DX2 analytically  !
 ! A28   A(9,11,19)            120.0468         calculate D2E/DX2 analytically  !
 ! A29   A(9,11,23)            122.2785         calculate D2E/DX2 analytically  !
 ! A30   A(19,11,23)           117.6737         calculate D2E/DX2 analytically  !
 ! A31   A(16,12,18)           116.7564         calculate D2E/DX2 analytically  !
 ! A32   A(16,12,20)           119.5061         calculate D2E/DX2 analytically  !
 ! A33   A(18,12,20)           123.7357         calculate D2E/DX2 analytically  !
 ! A34   A(17,13,19)           116.639          calculate D2E/DX2 analytically  !
 ! A35   A(17,13,21)           123.0824         calculate D2E/DX2 analytically  !
 ! A36   A(19,13,21)           120.2776         calculate D2E/DX2 analytically  !
 ! A37   A(6,14,26)            110.8089         calculate D2E/DX2 analytically  !
 ! A38   A(6,14,27)            109.4325         calculate D2E/DX2 analytically  !
 ! A39   A(6,14,28)            112.2789         calculate D2E/DX2 analytically  !
 ! A40   A(26,14,27)           109.3965         calculate D2E/DX2 analytically  !
 ! A41   A(26,14,28)           107.4053         calculate D2E/DX2 analytically  !
 ! A42   A(27,14,28)           107.4182         calculate D2E/DX2 analytically  !
 ! A43   A(7,15,29)            110.7724         calculate D2E/DX2 analytically  !
 ! A44   A(7,15,30)            112.3749         calculate D2E/DX2 analytically  !
 ! A45   A(7,15,31)            109.4173         calculate D2E/DX2 analytically  !
 ! A46   A(29,15,30)           107.3715         calculate D2E/DX2 analytically  !
 ! A47   A(29,15,31)           109.3973         calculate D2E/DX2 analytically  !
 ! A48   A(30,15,31)           107.4062         calculate D2E/DX2 analytically  !
 ! A49   A(6,16,12)            124.2099         calculate D2E/DX2 analytically  !
 ! A50   A(6,16,42)            118.3935         calculate D2E/DX2 analytically  !
 ! A51   A(12,16,42)           117.3961         calculate D2E/DX2 analytically  !
 ! A52   A(7,17,13)            123.9564         calculate D2E/DX2 analytically  !
 ! A53   A(7,17,43)            117.9846         calculate D2E/DX2 analytically  !
 ! A54   A(13,17,43)           118.0588         calculate D2E/DX2 analytically  !
 ! A55   A(10,18,12)           122.285          calculate D2E/DX2 analytically  !
 ! A56   A(10,18,44)           117.038          calculate D2E/DX2 analytically  !
 ! A57   A(12,18,44)           120.677          calculate D2E/DX2 analytically  !
 ! A58   A(11,19,13)           122.6693         calculate D2E/DX2 analytically  !
 ! A59   A(11,19,45)           117.3054         calculate D2E/DX2 analytically  !
 ! A60   A(13,19,45)           120.0251         calculate D2E/DX2 analytically  !
 ! A61   A(12,20,32)           112.0681         calculate D2E/DX2 analytically  !
 ! A62   A(12,20,33)           109.7323         calculate D2E/DX2 analytically  !
 ! A63   A(12,20,34)           109.6534         calculate D2E/DX2 analytically  !
 ! A64   A(32,20,33)           108.2703         calculate D2E/DX2 analytically  !
 ! A65   A(32,20,34)           108.2973         calculate D2E/DX2 analytically  !
 ! A66   A(33,20,34)           108.7463         calculate D2E/DX2 analytically  !
 ! A67   A(13,21,35)           109.7014         calculate D2E/DX2 analytically  !
 ! A68   A(13,21,36)           109.6335         calculate D2E/DX2 analytically  !
 ! A69   A(13,21,37)           112.3485         calculate D2E/DX2 analytically  !
 ! A70   A(35,21,36)           108.7117         calculate D2E/DX2 analytically  !
 ! A71   A(35,21,37)           108.1702         calculate D2E/DX2 analytically  !
 ! A72   A(36,21,37)           108.1929         calculate D2E/DX2 analytically  !
 ! A73   A(4,22,10)            124.9239         calculate D2E/DX2 analytically  !
 ! A74   A(4,22,46)            118.0557         calculate D2E/DX2 analytically  !
 ! A75   A(10,22,46)           117.0202         calculate D2E/DX2 analytically  !
 ! A76   A(5,23,11)            125.2547         calculate D2E/DX2 analytically  !
 ! A77   A(5,23,47)            119.0508         calculate D2E/DX2 analytically  !
 ! A78   A(11,23,47)           115.6945         calculate D2E/DX2 analytically  !
 ! A79   A(4,24,25)            106.1064         calculate D2E/DX2 analytically  !
 ! A80   A(4,24,38)            109.817          calculate D2E/DX2 analytically  !
 ! A81   A(4,24,48)            110.2663         calculate D2E/DX2 analytically  !
 ! A82   A(25,24,38)           111.8555         calculate D2E/DX2 analytically  !
 ! A83   A(25,24,48)           109.4322         calculate D2E/DX2 analytically  !
 ! A84   A(38,24,48)           109.3246         calculate D2E/DX2 analytically  !
 ! A85   A(5,25,24)            105.1402         calculate D2E/DX2 analytically  !
 ! A86   A(5,25,39)            117.5648         calculate D2E/DX2 analytically  !
 ! A87   A(5,25,49)            105.7621         calculate D2E/DX2 analytically  !
 ! A88   A(24,25,39)           111.711          calculate D2E/DX2 analytically  !
 ! A89   A(24,25,49)           107.6025         calculate D2E/DX2 analytically  !
 ! A90   A(39,25,49)           108.5178         calculate D2E/DX2 analytically  !
 ! A91   A(14,26,50)           110.1656         calculate D2E/DX2 analytically  !
 ! A92   A(14,26,51)           111.0647         calculate D2E/DX2 analytically  !
 ! A93   A(14,26,52)           110.906          calculate D2E/DX2 analytically  !
 ! A94   A(50,26,51)           108.7027         calculate D2E/DX2 analytically  !
 ! A95   A(50,26,52)           107.4219         calculate D2E/DX2 analytically  !
 ! A96   A(51,26,52)           108.4733         calculate D2E/DX2 analytically  !
 ! A97   A(14,27,53)           110.7696         calculate D2E/DX2 analytically  !
 ! A98   A(14,27,54)           111.1987         calculate D2E/DX2 analytically  !
 ! A99   A(14,27,55)           110.4761         calculate D2E/DX2 analytically  !
 ! A100  A(53,27,54)           108.4193         calculate D2E/DX2 analytically  !
 ! A101  A(53,27,55)           107.5164         calculate D2E/DX2 analytically  !
 ! A102  A(54,27,55)           108.3417         calculate D2E/DX2 analytically  !
 ! A103  A(14,28,56)           109.3566         calculate D2E/DX2 analytically  !
 ! A104  A(14,28,57)           112.3018         calculate D2E/DX2 analytically  !
 ! A105  A(14,28,58)           112.4174         calculate D2E/DX2 analytically  !
 ! A106  A(56,28,57)           107.3391         calculate D2E/DX2 analytically  !
 ! A107  A(56,28,58)           107.2949         calculate D2E/DX2 analytically  !
 ! A108  A(57,28,58)           107.8856         calculate D2E/DX2 analytically  !
 ! A109  A(15,29,59)           110.1983         calculate D2E/DX2 analytically  !
 ! A110  A(15,29,60)           111.0408         calculate D2E/DX2 analytically  !
 ! A111  A(15,29,61)           110.9069         calculate D2E/DX2 analytically  !
 ! A112  A(59,29,60)           108.675          calculate D2E/DX2 analytically  !
 ! A113  A(59,29,61)           107.427          calculate D2E/DX2 analytically  !
 ! A114  A(60,29,61)           108.4863         calculate D2E/DX2 analytically  !
 ! A115  A(15,30,62)           109.3489         calculate D2E/DX2 analytically  !
 ! A116  A(15,30,63)           112.3156         calculate D2E/DX2 analytically  !
 ! A117  A(15,30,64)           112.435          calculate D2E/DX2 analytically  !
 ! A118  A(62,30,63)           107.3209         calculate D2E/DX2 analytically  !
 ! A119  A(62,30,64)           107.2875         calculate D2E/DX2 analytically  !
 ! A120  A(63,30,64)           107.8852         calculate D2E/DX2 analytically  !
 ! A121  A(15,31,65)           110.7336         calculate D2E/DX2 analytically  !
 ! A122  A(15,31,66)           111.2023         calculate D2E/DX2 analytically  !
 ! A123  A(15,31,67)           110.5134         calculate D2E/DX2 analytically  !
 ! A124  A(65,31,66)           108.415          calculate D2E/DX2 analytically  !
 ! A125  A(65,31,67)           107.4982         calculate D2E/DX2 analytically  !
 ! A126  A(66,31,67)           108.3589         calculate D2E/DX2 analytically  !
 ! A127  A(20,32,68)           109.9465         calculate D2E/DX2 analytically  !
 ! A128  A(20,32,69)           111.9738         calculate D2E/DX2 analytically  !
 ! A129  A(20,32,70)           111.9655         calculate D2E/DX2 analytically  !
 ! A130  A(68,32,69)           107.4597         calculate D2E/DX2 analytically  !
 ! A131  A(68,32,70)           107.4511         calculate D2E/DX2 analytically  !
 ! A132  A(69,32,70)           107.8333         calculate D2E/DX2 analytically  !
 ! A133  A(20,33,71)           110.7387         calculate D2E/DX2 analytically  !
 ! A134  A(20,33,72)           111.1887         calculate D2E/DX2 analytically  !
 ! A135  A(20,33,73)           111.7723         calculate D2E/DX2 analytically  !
 ! A136  A(71,33,72)           107.7654         calculate D2E/DX2 analytically  !
 ! A137  A(71,33,73)           107.4931         calculate D2E/DX2 analytically  !
 ! A138  A(72,33,73)           107.6996         calculate D2E/DX2 analytically  !
 ! A139  A(20,34,74)           111.7417         calculate D2E/DX2 analytically  !
 ! A140  A(20,34,75)           111.1878         calculate D2E/DX2 analytically  !
 ! A141  A(20,34,76)           110.7569         calculate D2E/DX2 analytically  !
 ! A142  A(74,34,75)           107.6854         calculate D2E/DX2 analytically  !
 ! A143  A(74,34,76)           107.5175         calculate D2E/DX2 analytically  !
 ! A144  A(75,34,76)           107.7697         calculate D2E/DX2 analytically  !
 ! A145  A(21,35,77)           110.8051         calculate D2E/DX2 analytically  !
 ! A146  A(21,35,78)           111.6691         calculate D2E/DX2 analytically  !
 ! A147  A(21,35,79)           111.1915         calculate D2E/DX2 analytically  !
 ! A148  A(77,35,78)           107.548          calculate D2E/DX2 analytically  !
 ! A149  A(77,35,79)           107.7634         calculate D2E/DX2 analytically  !
 ! A150  A(78,35,79)           107.6834         calculate D2E/DX2 analytically  !
 ! A151  A(21,36,80)           111.2068         calculate D2E/DX2 analytically  !
 ! A152  A(21,36,81)           111.6474         calculate D2E/DX2 analytically  !
 ! A153  A(21,36,82)           110.809          calculate D2E/DX2 analytically  !
 ! A154  A(80,36,81)           107.6837         calculate D2E/DX2 analytically  !
 ! A155  A(80,36,82)           107.7599         calculate D2E/DX2 analytically  !
 ! A156  A(81,36,82)           107.5539         calculate D2E/DX2 analytically  !
 ! A157  A(21,37,83)           109.8341         calculate D2E/DX2 analytically  !
 ! A158  A(21,37,84)           112.0749         calculate D2E/DX2 analytically  !
 ! A159  A(21,37,85)           112.0773         calculate D2E/DX2 analytically  !
 ! A160  A(83,37,84)           107.3885         calculate D2E/DX2 analytically  !
 ! A161  A(83,37,85)           107.4049         calculate D2E/DX2 analytically  !
 ! A162  A(84,37,85)           107.839          calculate D2E/DX2 analytically  !
 ! A163  A(24,38,40)           112.4256         calculate D2E/DX2 analytically  !
 ! A164  A(24,38,86)           107.6452         calculate D2E/DX2 analytically  !
 ! A165  A(24,38,87)           108.9375         calculate D2E/DX2 analytically  !
 ! A166  A(40,38,86)           109.6243         calculate D2E/DX2 analytically  !
 ! A167  A(40,38,87)           111.389          calculate D2E/DX2 analytically  !
 ! A168  A(86,38,87)           106.5837         calculate D2E/DX2 analytically  !
 ! A169  A(25,39,41)           113.1092         calculate D2E/DX2 analytically  !
 ! A170  A(25,39,88)           106.5577         calculate D2E/DX2 analytically  !
 ! A171  A(25,39,89)           110.8114         calculate D2E/DX2 analytically  !
 ! A172  A(41,39,88)           108.9212         calculate D2E/DX2 analytically  !
 ! A173  A(41,39,89)           111.6083         calculate D2E/DX2 analytically  !
 ! A174  A(88,39,89)           105.3921         calculate D2E/DX2 analytically  !
 ! A175  A(38,40,41)           110.5666         calculate D2E/DX2 analytically  !
 ! A176  A(38,40,90)           109.9513         calculate D2E/DX2 analytically  !
 ! A177  A(38,40,91)           109.7653         calculate D2E/DX2 analytically  !
 ! A178  A(41,40,90)           110.8057         calculate D2E/DX2 analytically  !
 ! A179  A(41,40,91)           109.2505         calculate D2E/DX2 analytically  !
 ! A180  A(90,40,91)           106.4101         calculate D2E/DX2 analytically  !
 ! A181  A(39,41,40)           110.2906         calculate D2E/DX2 analytically  !
 ! A182  A(39,41,92)           109.9459         calculate D2E/DX2 analytically  !
 ! A183  A(39,41,93)           109.9173         calculate D2E/DX2 analytically  !
 ! A184  A(40,41,92)           110.7688         calculate D2E/DX2 analytically  !
 ! A185  A(40,41,93)           109.4032         calculate D2E/DX2 analytically  !
 ! A186  A(92,41,93)           106.4402         calculate D2E/DX2 analytically  !
 ! A187  L(2,1,5,4,-1)         180.8861         calculate D2E/DX2 analytically  !
 ! A188  L(3,1,4,5,-1)         181.6192         calculate D2E/DX2 analytically  !
 ! A189  L(2,1,5,4,-2)         185.6099         calculate D2E/DX2 analytically  !
 ! A190  L(3,1,4,5,-2)         185.3719         calculate D2E/DX2 analytically  !
 ! D1    D(3,1,2,8)            179.2388         calculate D2E/DX2 analytically  !
 ! D2    D(4,1,2,8)              4.7478         calculate D2E/DX2 analytically  !
 ! D3    D(2,1,3,9)            179.8909         calculate D2E/DX2 analytically  !
 ! D4    D(5,1,3,9)              5.568          calculate D2E/DX2 analytically  !
 ! D5    D(2,1,4,22)             0.2072         calculate D2E/DX2 analytically  !
 ! D6    D(2,1,4,24)           172.824          calculate D2E/DX2 analytically  !
 ! D7    D(5,1,4,22)           174.5973         calculate D2E/DX2 analytically  !
 ! D8    D(5,1,4,24)           -12.7859         calculate D2E/DX2 analytically  !
 ! D9    D(3,1,5,23)            -0.2161         calculate D2E/DX2 analytically  !
 ! D10   D(3,1,5,25)           172.4992         calculate D2E/DX2 analytically  !
 ! D11   D(4,1,5,23)           174.412          calculate D2E/DX2 analytically  !
 ! D12   D(4,1,5,25)           -12.8727         calculate D2E/DX2 analytically  !
 ! D13   D(1,2,8,6)            173.9072         calculate D2E/DX2 analytically  !
 ! D14   D(1,2,8,10)            -6.1802         calculate D2E/DX2 analytically  !
 ! D15   D(1,3,9,7)            173.2724         calculate D2E/DX2 analytically  !
 ! D16   D(1,3,9,11)            -6.8704         calculate D2E/DX2 analytically  !
 ! D17   D(1,4,22,10)           -3.6765         calculate D2E/DX2 analytically  !
 ! D18   D(1,4,22,46)          176.4835         calculate D2E/DX2 analytically  !
 ! D19   D(24,4,22,10)        -175.9796         calculate D2E/DX2 analytically  !
 ! D20   D(24,4,22,46)           4.1804         calculate D2E/DX2 analytically  !
 ! D21   D(1,4,24,25)           33.8428         calculate D2E/DX2 analytically  !
 ! D22   D(1,4,24,38)          -87.2163         calculate D2E/DX2 analytically  !
 ! D23   D(1,4,24,48)          152.2515         calculate D2E/DX2 analytically  !
 ! D24   D(22,4,24,25)        -152.6915         calculate D2E/DX2 analytically  !
 ! D25   D(22,4,24,38)          86.2494         calculate D2E/DX2 analytically  !
 ! D26   D(22,4,24,48)         -34.2828         calculate D2E/DX2 analytically  !
 ! D27   D(1,5,23,11)           -3.7361         calculate D2E/DX2 analytically  !
 ! D28   D(1,5,23,47)          176.3223         calculate D2E/DX2 analytically  !
 ! D29   D(25,5,23,11)        -175.9787         calculate D2E/DX2 analytically  !
 ! D30   D(25,5,23,47)           4.0797         calculate D2E/DX2 analytically  !
 ! D31   D(1,5,25,24)           33.4385         calculate D2E/DX2 analytically  !
 ! D32   D(1,5,25,39)          158.4359         calculate D2E/DX2 analytically  !
 ! D33   D(1,5,25,49)          -80.2584         calculate D2E/DX2 analytically  !
 ! D34   D(23,5,25,24)        -153.2287         calculate D2E/DX2 analytically  !
 ! D35   D(23,5,25,39)         -28.2313         calculate D2E/DX2 analytically  !
 ! D36   D(23,5,25,49)          93.0745         calculate D2E/DX2 analytically  !
 ! D37   D(14,6,8,2)            -3.6333         calculate D2E/DX2 analytically  !
 ! D38   D(14,6,8,10)          176.4496         calculate D2E/DX2 analytically  !
 ! D39   D(16,6,8,2)           177.6997         calculate D2E/DX2 analytically  !
 ! D40   D(16,6,8,10)           -2.2173         calculate D2E/DX2 analytically  !
 ! D41   D(8,6,14,26)           59.7785         calculate D2E/DX2 analytically  !
 ! D42   D(8,6,14,27)          -60.9397         calculate D2E/DX2 analytically  !
 ! D43   D(8,6,14,28)          179.8791         calculate D2E/DX2 analytically  !
 ! D44   D(16,6,14,26)        -121.5879         calculate D2E/DX2 analytically  !
 ! D45   D(16,6,14,27)         117.6939         calculate D2E/DX2 analytically  !
 ! D46   D(16,6,14,28)          -1.4873         calculate D2E/DX2 analytically  !
 ! D47   D(8,6,16,12)            0.7158         calculate D2E/DX2 analytically  !
 ! D48   D(8,6,16,42)         -179.5631         calculate D2E/DX2 analytically  !
 ! D49   D(14,6,16,12)        -177.9321         calculate D2E/DX2 analytically  !
 ! D50   D(14,6,16,42)           1.789          calculate D2E/DX2 analytically  !
 ! D51   D(15,7,9,3)            -3.5189         calculate D2E/DX2 analytically  !
 ! D52   D(15,7,9,11)          176.6172         calculate D2E/DX2 analytically  !
 ! D53   D(17,7,9,3)           177.8319         calculate D2E/DX2 analytically  !
 ! D54   D(17,7,9,11)           -2.032          calculate D2E/DX2 analytically  !
 ! D55   D(9,7,15,29)           59.712          calculate D2E/DX2 analytically  !
 ! D56   D(9,7,15,30)          179.8092         calculate D2E/DX2 analytically  !
 ! D57   D(9,7,15,31)          -60.9741         calculate D2E/DX2 analytically  !
 ! D58   D(17,7,15,29)        -121.668          calculate D2E/DX2 analytically  !
 ! D59   D(17,7,15,30)          -1.5708         calculate D2E/DX2 analytically  !
 ! D60   D(17,7,15,31)         117.6459         calculate D2E/DX2 analytically  !
 ! D61   D(9,7,17,13)            0.5341         calculate D2E/DX2 analytically  !
 ! D62   D(9,7,17,43)         -179.62           calculate D2E/DX2 analytically  !
 ! D63   D(15,7,17,13)        -178.0956         calculate D2E/DX2 analytically  !
 ! D64   D(15,7,17,43)           1.7503         calculate D2E/DX2 analytically  !
 ! D65   D(2,8,10,18)         -177.6337         calculate D2E/DX2 analytically  !
 ! D66   D(2,8,10,22)            1.9921         calculate D2E/DX2 analytically  !
 ! D67   D(6,8,10,18)            2.2808         calculate D2E/DX2 analytically  !
 ! D68   D(6,8,10,22)         -178.0934         calculate D2E/DX2 analytically  !
 ! D69   D(3,9,11,19)         -177.627          calculate D2E/DX2 analytically  !
 ! D70   D(3,9,11,23)            2.0029         calculate D2E/DX2 analytically  !
 ! D71   D(7,9,11,19)            2.2335         calculate D2E/DX2 analytically  !
 ! D72   D(7,9,11,23)         -178.1366         calculate D2E/DX2 analytically  !
 ! D73   D(8,10,18,12)          -0.7946         calculate D2E/DX2 analytically  !
 ! D74   D(8,10,18,44)         179.2741         calculate D2E/DX2 analytically  !
 ! D75   D(22,10,18,12)        179.5654         calculate D2E/DX2 analytically  !
 ! D76   D(22,10,18,44)         -0.3659         calculate D2E/DX2 analytically  !
 ! D77   D(8,10,22,4)            3.0824         calculate D2E/DX2 analytically  !
 ! D78   D(8,10,22,46)        -177.0761         calculate D2E/DX2 analytically  !
 ! D79   D(18,10,22,4)        -177.283          calculate D2E/DX2 analytically  !
 ! D80   D(18,10,22,46)          2.5585         calculate D2E/DX2 analytically  !
 ! D81   D(9,11,19,13)          -0.921          calculate D2E/DX2 analytically  !
 ! D82   D(9,11,19,45)         179.2705         calculate D2E/DX2 analytically  !
 ! D83   D(23,11,19,13)        179.4324         calculate D2E/DX2 analytically  !
 ! D84   D(23,11,19,45)         -0.3762         calculate D2E/DX2 analytically  !
 ! D85   D(9,11,23,5)            3.5175         calculate D2E/DX2 analytically  !
 ! D86   D(9,11,23,47)        -176.5392         calculate D2E/DX2 analytically  !
 ! D87   D(19,11,23,5)        -176.8442         calculate D2E/DX2 analytically  !
 ! D88   D(19,11,23,47)          3.0991         calculate D2E/DX2 analytically  !
 ! D89   D(18,12,16,6)           0.8071         calculate D2E/DX2 analytically  !
 ! D90   D(18,12,16,42)       -178.9166         calculate D2E/DX2 analytically  !
 ! D91   D(20,12,16,6)        -179.6571         calculate D2E/DX2 analytically  !
 ! D92   D(20,12,16,42)          0.6192         calculate D2E/DX2 analytically  !
 ! D93   D(16,12,18,10)         -0.7608         calculate D2E/DX2 analytically  !
 ! D94   D(16,12,18,44)        179.1681         calculate D2E/DX2 analytically  !
 ! D95   D(20,12,18,10)        179.7249         calculate D2E/DX2 analytically  !
 ! D96   D(20,12,18,44)         -0.3462         calculate D2E/DX2 analytically  !
 ! D97   D(16,12,20,32)       -179.7408         calculate D2E/DX2 analytically  !
 ! D98   D(16,12,20,33)        -59.4226         calculate D2E/DX2 analytically  !
 ! D99   D(16,12,20,34)         59.9606         calculate D2E/DX2 analytically  !
 ! D100  D(18,12,20,32)         -0.2392         calculate D2E/DX2 analytically  !
 ! D101  D(18,12,20,33)        120.079          calculate D2E/DX2 analytically  !
 ! D102  D(18,12,20,34)       -120.5378         calculate D2E/DX2 analytically  !
 ! D103  D(19,13,17,7)           0.8197         calculate D2E/DX2 analytically  !
 ! D104  D(19,13,17,43)       -179.0261         calculate D2E/DX2 analytically  !
 ! D105  D(21,13,17,7)        -179.5576         calculate D2E/DX2 analytically  !
 ! D106  D(21,13,17,43)          0.5966         calculate D2E/DX2 analytically  !
 ! D107  D(17,13,19,11)         -0.6168         calculate D2E/DX2 analytically  !
 ! D108  D(17,13,19,45)        179.1867         calculate D2E/DX2 analytically  !
 ! D109  D(21,13,19,11)        179.7493         calculate D2E/DX2 analytically  !
 ! D110  D(21,13,19,45)         -0.4472         calculate D2E/DX2 analytically  !
 ! D111  D(17,13,21,35)       -120.3535         calculate D2E/DX2 analytically  !
 ! D112  D(17,13,21,36)        120.3369         calculate D2E/DX2 analytically  !
 ! D113  D(17,13,21,37)          0.0006         calculate D2E/DX2 analytically  !
 ! D114  D(19,13,21,35)         59.256          calculate D2E/DX2 analytically  !
 ! D115  D(19,13,21,36)        -60.0537         calculate D2E/DX2 analytically  !
 ! D116  D(19,13,21,37)        179.6101         calculate D2E/DX2 analytically  !
 ! D117  D(6,14,26,50)         178.7195         calculate D2E/DX2 analytically  !
 ! D118  D(6,14,26,51)         -60.7824         calculate D2E/DX2 analytically  !
 ! D119  D(6,14,26,52)          59.9219         calculate D2E/DX2 analytically  !
 ! D120  D(27,14,26,50)        -60.541          calculate D2E/DX2 analytically  !
 ! D121  D(27,14,26,51)         59.9571         calculate D2E/DX2 analytically  !
 ! D122  D(27,14,26,52)       -179.3386         calculate D2E/DX2 analytically  !
 ! D123  D(28,14,26,50)         55.7517         calculate D2E/DX2 analytically  !
 ! D124  D(28,14,26,51)        176.2497         calculate D2E/DX2 analytically  !
 ! D125  D(28,14,26,52)        -63.0459         calculate D2E/DX2 analytically  !
 ! D126  D(6,14,27,53)         -62.118          calculate D2E/DX2 analytically  !
 ! D127  D(6,14,27,54)          58.5158         calculate D2E/DX2 analytically  !
 ! D128  D(6,14,27,55)         178.8547         calculate D2E/DX2 analytically  !
 ! D129  D(26,14,27,53)        176.3084         calculate D2E/DX2 analytically  !
 ! D130  D(26,14,27,54)        -63.0578         calculate D2E/DX2 analytically  !
 ! D131  D(26,14,27,55)         57.2811         calculate D2E/DX2 analytically  !
 ! D132  D(28,14,27,53)         60.0239         calculate D2E/DX2 analytically  !
 ! D133  D(28,14,27,54)       -179.3422         calculate D2E/DX2 analytically  !
 ! D134  D(28,14,27,55)        -59.0033         calculate D2E/DX2 analytically  !
 ! D135  D(6,14,28,56)         179.6575         calculate D2E/DX2 analytically  !
 ! D136  D(6,14,28,57)         -61.2962         calculate D2E/DX2 analytically  !
 ! D137  D(6,14,28,58)          60.5937         calculate D2E/DX2 analytically  !
 ! D138  D(26,14,28,56)        -58.2852         calculate D2E/DX2 analytically  !
 ! D139  D(26,14,28,57)         60.761          calculate D2E/DX2 analytically  !
 ! D140  D(26,14,28,58)       -177.349          calculate D2E/DX2 analytically  !
 ! D141  D(27,14,28,56)         59.303          calculate D2E/DX2 analytically  !
 ! D142  D(27,14,28,57)        178.3492         calculate D2E/DX2 analytically  !
 ! D143  D(27,14,28,58)        -59.7609         calculate D2E/DX2 analytically  !
 ! D144  D(7,15,29,59)         178.9309         calculate D2E/DX2 analytically  !
 ! D145  D(7,15,29,60)         -60.5998         calculate D2E/DX2 analytically  !
 ! D146  D(7,15,29,61)          60.1055         calculate D2E/DX2 analytically  !
 ! D147  D(30,15,29,59)         55.8892         calculate D2E/DX2 analytically  !
 ! D148  D(30,15,29,60)        176.3586         calculate D2E/DX2 analytically  !
 ! D149  D(30,15,29,61)        -62.9362         calculate D2E/DX2 analytically  !
 ! D150  D(31,15,29,59)        -60.3712         calculate D2E/DX2 analytically  !
 ! D151  D(31,15,29,60)         60.0982         calculate D2E/DX2 analytically  !
 ! D152  D(31,15,29,61)       -179.1966         calculate D2E/DX2 analytically  !
 ! D153  D(7,15,30,62)         179.688          calculate D2E/DX2 analytically  !
 ! D154  D(7,15,30,63)         -61.2851         calculate D2E/DX2 analytically  !
 ! D155  D(7,15,30,64)          60.6275         calculate D2E/DX2 analytically  !
 ! D156  D(29,15,30,62)        -58.2633         calculate D2E/DX2 analytically  !
 ! D157  D(29,15,30,63)         60.7637         calculate D2E/DX2 analytically  !
 ! D158  D(29,15,30,64)       -177.3237         calculate D2E/DX2 analytically  !
 ! D159  D(31,15,30,62)         59.3022         calculate D2E/DX2 analytically  !
 ! D160  D(31,15,30,63)        178.3292         calculate D2E/DX2 analytically  !
 ! D161  D(31,15,30,64)        -59.7583         calculate D2E/DX2 analytically  !
 ! D162  D(7,15,31,65)         -62.4725         calculate D2E/DX2 analytically  !
 ! D163  D(7,15,31,66)          58.1341         calculate D2E/DX2 analytically  !
 ! D164  D(7,15,31,67)         178.5219         calculate D2E/DX2 analytically  !
 ! D165  D(29,15,31,65)        176.008          calculate D2E/DX2 analytically  !
 ! D166  D(29,15,31,66)        -63.3854         calculate D2E/DX2 analytically  !
 ! D167  D(29,15,31,67)         57.0024         calculate D2E/DX2 analytically  !
 ! D168  D(30,15,31,65)         59.7697         calculate D2E/DX2 analytically  !
 ! D169  D(30,15,31,66)       -179.6238         calculate D2E/DX2 analytically  !
 ! D170  D(30,15,31,67)        -59.236          calculate D2E/DX2 analytically  !
 ! D171  D(12,20,32,68)       -179.9079         calculate D2E/DX2 analytically  !
 ! D172  D(12,20,32,69)        -60.5267         calculate D2E/DX2 analytically  !
 ! D173  D(12,20,32,70)         60.727          calculate D2E/DX2 analytically  !
 ! D174  D(33,20,32,68)         58.9273         calculate D2E/DX2 analytically  !
 ! D175  D(33,20,32,69)        178.3085         calculate D2E/DX2 analytically  !
 ! D176  D(33,20,32,70)        -60.4378         calculate D2E/DX2 analytically  !
 ! D177  D(34,20,32,68)        -58.8237         calculate D2E/DX2 analytically  !
 ! D178  D(34,20,32,69)         60.5575         calculate D2E/DX2 analytically  !
 ! D179  D(34,20,32,70)       -178.1888         calculate D2E/DX2 analytically  !
 ! D180  D(12,20,33,71)        179.526          calculate D2E/DX2 analytically  !
 ! D181  D(12,20,33,72)        -60.6924         calculate D2E/DX2 analytically  !
 ! D182  D(12,20,33,73)         59.7019         calculate D2E/DX2 analytically  !
 ! D183  D(32,20,33,71)        -57.8751         calculate D2E/DX2 analytically  !
 ! D184  D(32,20,33,72)         61.9065         calculate D2E/DX2 analytically  !
 ! D185  D(32,20,33,73)       -177.6992         calculate D2E/DX2 analytically  !
 ! D186  D(34,20,33,71)         59.5882         calculate D2E/DX2 analytically  !
 ! D187  D(34,20,33,72)        179.3698         calculate D2E/DX2 analytically  !
 ! D188  D(34,20,33,73)        -60.2359         calculate D2E/DX2 analytically  !
 ! D189  D(12,20,34,74)        -59.4815         calculate D2E/DX2 analytically  !
 ! D190  D(12,20,34,75)         60.8731         calculate D2E/DX2 analytically  !
 ! D191  D(12,20,34,76)       -179.3285         calculate D2E/DX2 analytically  !
 ! D192  D(32,20,34,74)        177.9515         calculate D2E/DX2 analytically  !
 ! D193  D(32,20,34,75)        -61.6939         calculate D2E/DX2 analytically  !
 ! D194  D(32,20,34,76)         58.1045         calculate D2E/DX2 analytically  !
 ! D195  D(33,20,34,74)         60.5053         calculate D2E/DX2 analytically  !
 ! D196  D(33,20,34,75)       -179.1401         calculate D2E/DX2 analytically  !
 ! D197  D(33,20,34,76)        -59.3416         calculate D2E/DX2 analytically  !
 ! D198  D(13,21,35,77)       -179.4955         calculate D2E/DX2 analytically  !
 ! D199  D(13,21,35,78)        -59.6256         calculate D2E/DX2 analytically  !
 ! D200  D(13,21,35,79)         60.6795         calculate D2E/DX2 analytically  !
 ! D201  D(36,21,35,77)        -59.6214         calculate D2E/DX2 analytically  !
 ! D202  D(36,21,35,78)         60.2484         calculate D2E/DX2 analytically  !
 ! D203  D(36,21,35,79)       -179.4465         calculate D2E/DX2 analytically  !
 ! D204  D(37,21,35,77)         57.6436         calculate D2E/DX2 analytically  !
 ! D205  D(37,21,35,78)        177.5134         calculate D2E/DX2 analytically  !
 ! D206  D(37,21,35,79)        -62.1815         calculate D2E/DX2 analytically  !
 ! D207  D(13,21,36,80)        -60.717          calculate D2E/DX2 analytically  !
 ! D208  D(13,21,36,81)         59.5842         calculate D2E/DX2 analytically  !
 ! D209  D(13,21,36,82)        179.4497         calculate D2E/DX2 analytically  !
 ! D210  D(35,21,36,80)        179.3668         calculate D2E/DX2 analytically  !
 ! D211  D(35,21,36,81)        -60.332          calculate D2E/DX2 analytically  !
 ! D212  D(35,21,36,82)         59.5334         calculate D2E/DX2 analytically  !
 ! D213  D(37,21,36,80)         62.1162         calculate D2E/DX2 analytically  !
 ! D214  D(37,21,36,81)       -177.5826         calculate D2E/DX2 analytically  !
 ! D215  D(37,21,36,82)        -57.7171         calculate D2E/DX2 analytically  !
 ! D216  D(13,21,37,83)        179.9122         calculate D2E/DX2 analytically  !
 ! D217  D(13,21,37,84)        -60.806          calculate D2E/DX2 analytically  !
 ! D218  D(13,21,37,85)         60.6083         calculate D2E/DX2 analytically  !
 ! D219  D(35,21,37,83)        -58.8523         calculate D2E/DX2 analytically  !
 ! D220  D(35,21,37,84)         60.4295         calculate D2E/DX2 analytically  !
 ! D221  D(35,21,37,85)       -178.1562         calculate D2E/DX2 analytically  !
 ! D222  D(36,21,37,83)         58.7463         calculate D2E/DX2 analytically  !
 ! D223  D(36,21,37,84)        178.0281         calculate D2E/DX2 analytically  !
 ! D224  D(36,21,37,85)        -60.5576         calculate D2E/DX2 analytically  !
 ! D225  D(4,24,25,5)          -41.2483         calculate D2E/DX2 analytically  !
 ! D226  D(4,24,25,39)        -169.8373         calculate D2E/DX2 analytically  !
 ! D227  D(4,24,25,49)          71.1522         calculate D2E/DX2 analytically  !
 ! D228  D(38,24,25,5)          78.4882         calculate D2E/DX2 analytically  !
 ! D229  D(38,24,25,39)        -50.1008         calculate D2E/DX2 analytically  !
 ! D230  D(38,24,25,49)       -169.1113         calculate D2E/DX2 analytically  !
 ! D231  D(48,24,25,5)        -160.2073         calculate D2E/DX2 analytically  !
 ! D232  D(48,24,25,39)         71.2037         calculate D2E/DX2 analytically  !
 ! D233  D(48,24,25,49)        -47.8068         calculate D2E/DX2 analytically  !
 ! D234  D(4,24,38,40)         170.5485         calculate D2E/DX2 analytically  !
 ! D235  D(4,24,38,86)          49.7155         calculate D2E/DX2 analytically  !
 ! D236  D(4,24,38,87)         -65.4849         calculate D2E/DX2 analytically  !
 ! D237  D(25,24,38,40)         53.0156         calculate D2E/DX2 analytically  !
 ! D238  D(25,24,38,86)        -67.8174         calculate D2E/DX2 analytically  !
 ! D239  D(25,24,38,87)        176.9822         calculate D2E/DX2 analytically  !
 ! D240  D(48,24,38,40)        -68.3511         calculate D2E/DX2 analytically  !
 ! D241  D(48,24,38,86)        170.8159         calculate D2E/DX2 analytically  !
 ! D242  D(48,24,38,87)         55.6155         calculate D2E/DX2 analytically  !
 ! D243  D(5,25,39,41)         -69.2679         calculate D2E/DX2 analytically  !
 ! D244  D(5,25,39,88)         171.0835         calculate D2E/DX2 analytically  !
 ! D245  D(5,25,39,89)          56.9266         calculate D2E/DX2 analytically  !
 ! D246  D(24,25,39,41)         52.3983         calculate D2E/DX2 analytically  !
 ! D247  D(24,25,39,88)        -67.2502         calculate D2E/DX2 analytically  !
 ! D248  D(24,25,39,89)        178.5928         calculate D2E/DX2 analytically  !
 ! D249  D(49,25,39,41)        170.8644         calculate D2E/DX2 analytically  !
 ! D250  D(49,25,39,88)         51.2159         calculate D2E/DX2 analytically  !
 ! D251  D(49,25,39,89)        -62.9411         calculate D2E/DX2 analytically  !
 ! D252  D(24,38,40,41)        -56.4514         calculate D2E/DX2 analytically  !
 ! D253  D(24,38,40,90)       -179.122          calculate D2E/DX2 analytically  !
 ! D254  D(24,38,40,91)         64.1469         calculate D2E/DX2 analytically  !
 ! D255  D(86,38,40,41)         63.2377         calculate D2E/DX2 analytically  !
 ! D256  D(86,38,40,90)        -59.4328         calculate D2E/DX2 analytically  !
 ! D257  D(86,38,40,91)       -176.164          calculate D2E/DX2 analytically  !
 ! D258  D(87,38,40,41)       -179.0465         calculate D2E/DX2 analytically  !
 ! D259  D(87,38,40,90)         58.283          calculate D2E/DX2 analytically  !
 ! D260  D(87,38,40,91)        -58.4482         calculate D2E/DX2 analytically  !
 ! D261  D(25,39,41,40)        -55.745          calculate D2E/DX2 analytically  !
 ! D262  D(25,39,41,92)       -178.1809         calculate D2E/DX2 analytically  !
 ! D263  D(25,39,41,93)         64.9649         calculate D2E/DX2 analytically  !
 ! D264  D(88,39,41,40)         62.5375         calculate D2E/DX2 analytically  !
 ! D265  D(88,39,41,92)        -59.8985         calculate D2E/DX2 analytically  !
 ! D266  D(88,39,41,93)       -176.7527         calculate D2E/DX2 analytically  !
 ! D267  D(89,39,41,40)        178.4865         calculate D2E/DX2 analytically  !
 ! D268  D(89,39,41,92)         56.0505         calculate D2E/DX2 analytically  !
 ! D269  D(89,39,41,93)        -60.8037         calculate D2E/DX2 analytically  !
 ! D270  D(38,40,41,39)         56.8877         calculate D2E/DX2 analytically  !
 ! D271  D(38,40,41,92)        178.8387         calculate D2E/DX2 analytically  !
 ! D272  D(38,40,41,93)        -64.1295         calculate D2E/DX2 analytically  !
 ! D273  D(90,40,41,39)        179.0585         calculate D2E/DX2 analytically  !
 ! D274  D(90,40,41,92)        -58.9905         calculate D2E/DX2 analytically  !
 ! D275  D(90,40,41,93)         58.0413         calculate D2E/DX2 analytically  !
 ! D276  D(91,40,41,39)        -64.0171         calculate D2E/DX2 analytically  !
 ! D277  D(91,40,41,92)         57.9339         calculate D2E/DX2 analytically  !
 ! D278  D(91,40,41,93)        174.9657         calculate D2E/DX2 analytically  !
 --------------------------------------------------------------------------------
 Trust Radius=3.00D-01 FncErr=5.00D-06 GrdErr=5.00D-06 EigMax=2.50D+02 EigMin=1.00D-04
 Number of steps in this run=    558 maximum allowed number of steps=    558.
 GradGradGradGradGradGradGradGradGradGradGradGradGradGradGradGradGradGrad

 Symmetry turned off by external request.
 Stoichiometry    C36H52CoN2O2(2)
 Framework group  C1[X(C36H52CoN2O2)]
 Deg. of freedom   273
 Full point group                 C1      NOp   1
                          Input orientation:                          
 ---------------------------------------------------------------------
 Center     Atomic      Atomic             Coordinates (Angstroms)
 Number     Number       Type             X           Y           Z
 ---------------------------------------------------------------------
      1         27           0       -0.418588   -0.427173   -3.733080
      2          8           0        0.789628   -1.904207   -3.879990
      3          8           0       -1.765368   -1.749450   -3.437668
      4          7           0        0.853761    0.796859   -4.188649
      5          7           0       -1.549360    0.985001   -3.412668
      6          6           0        2.823925   -3.103681   -4.060641
      7          6           0       -3.915876   -2.701001   -3.163712
      8          6           0        2.064975   -1.882816   -4.118875
      9          6           0       -3.032185   -1.572052   -3.220850
     10          6           0        2.771923   -0.676649   -4.447203
     11          6           0       -3.604836   -0.267607   -3.027796
     12          6           0        4.878512   -1.892784   -4.723886
     13          6           0       -5.833196   -1.222895   -2.660744
     14          6           0        2.140368   -4.409097   -3.635641
     15          6           0       -3.372247   -4.108429   -3.439759
     16          6           0        4.178045   -3.065607   -4.367069
     17          6           0       -5.264839   -2.490949   -2.884442
     18          6           0        4.152426   -0.717292   -4.747190
     19          6           0       -4.978639   -0.135073   -2.746031
     20          6           0        6.370220   -1.975911   -5.048211
     21          6           0       -7.317295   -1.015959   -2.345540
     22          6           0        2.114861    0.592699   -4.490618
     23          6           0       -2.822159    0.930715   -3.103232
     24          6           0        0.310451    2.150226   -4.372471
     25          6           0       -0.833205    2.288183   -3.367599
     26          6           0        0.984840   -4.754899   -4.587003
     27          6           0        1.596946   -4.259748   -2.205616
     28          6           0        3.105396   -5.596372   -3.637204
     29          6           0       -2.263516   -4.470230   -2.439452
     30          6           0       -4.455529   -5.183197   -3.329437
     31          6           0       -2.809546   -4.167683   -4.869090
     32          6           0        6.956892   -0.611377   -5.404917
     33          6           0        7.134255   -2.526204   -3.835968
     34          6           0        6.587855   -2.920068   -6.238550
     35          6           0       -7.953618   -0.119718   -3.416591
     36          6           0       -7.463814   -0.331124   -0.979965
     37          6           0       -8.091760   -2.332822   -2.304472
     38          6           0       -0.173675    2.323616   -5.813993
     39          6           0       -1.650975    3.551721   -3.613570
     40          6           0       -0.953646    3.614784   -6.013009
     41          6           0       -2.133613    3.680678   -5.052026
     42          1           0        4.742395   -3.992055   -4.327898
     43          1           0       -5.915186   -3.355901   -2.839290
     44          1           0        4.631329    0.225778   -5.000237
     45          1           0       -5.363142    0.873552   -2.595777
     46          1           0        2.716659    1.453866   -4.797355
     47          1           0       -3.353607    1.857731   -2.881413
     48          1           0        1.081584    2.903009   -4.154617
     49          1           0       -0.388767    2.349921   -2.364893
     50          1           0        0.518580   -5.700787   -4.287166
     51          1           0        0.225184   -3.973436   -4.580896
     52          1           0        1.347418   -4.878775   -5.613911
     53          1           0        2.412608   -4.077230   -1.497071
     54          1           0        0.889040   -3.432335   -2.136968
     55          1           0        1.086284   -5.177635   -1.891594
     56          1           0        2.571312   -6.498483   -3.321941
     57          1           0        3.520250   -5.793351   -4.631239
     58          1           0        3.942210   -5.455128   -2.945577
     59          1           0       -1.895070   -5.484610   -2.633217
     60          1           0       -1.427248   -3.775000   -2.513764
     61          1           0       -2.642417   -4.449449   -1.411191
     62          1           0       -4.016543   -6.163670   -3.540448
     63          1           0       -4.893281   -5.230939   -2.326894
     64          1           0       -5.269883   -5.030571   -4.044954
     65          1           0       -3.599878   -3.982317   -5.605139
     66          1           0       -2.022396   -3.426116   -5.014373
     67          1           0       -2.391824   -5.159880   -5.076718
     68          1           0        8.022998   -0.711061   -5.631820
     69          1           0        6.473316   -0.174914   -6.284557
     70          1           0        6.862020    0.103093   -4.581131
     71          1           0        8.205534   -2.600620   -4.053653
     72          1           0        7.014982   -1.874787   -2.963959
     73          1           0        6.785513   -3.524600   -3.555526
     74          1           0        6.218869   -3.928483   -6.028730
     75          1           0        6.070611   -2.555855   -7.132292
     76          1           0        7.653659   -3.002286   -6.479181
     77          1           0       -9.015344    0.047713   -3.203403
     78          1           0       -7.468336    0.859578   -3.464253
     79          1           0       -7.880112   -0.576021   -4.409268
     80          1           0       -7.031666   -0.943224   -0.181483
     81          1           0       -6.963656    0.641759   -0.960617
     82          1           0       -8.519817   -0.164695   -0.739235
     83          1           0       -9.144117   -2.137772   -2.075164
     84          1           0       -8.058123   -2.859921   -3.263224
     85          1           0       -7.709331   -3.011206   -1.535255
     86          1           0       -0.814741    1.464021   -6.055867
     87          1           0        0.688760    2.269888   -6.487627
     88          1           0       -0.993812    4.399903   -3.381168
     89          1           0       -2.479294    3.623004   -2.902877
     90          1           0       -1.292999    3.690024   -7.051313
     91          1           0       -0.295361    4.477362   -5.838221
     92          1           0       -2.685284    4.617966   -5.178287
     93          1           0       -2.838866    2.871177   -5.284083
 ---------------------------------------------------------------------
 Rotational constants (GHZ):           0.1306693           0.0481613           0.0370720
 General basis read from cards:  (5D, 7F)
 ======================================================================================================
                                       Pseudopotential Parameters
 ======================================================================================================
  Center     Atomic      Valence      Angular      Power
  Number     Number     Electrons     Momentum     of R      Exponent        Coefficient   SO-Coeffient
 ======================================================================================================
    1         27           17
                                      F and up 
                                                     2        1.0000000        0.00000000    0.00000000
                                      S - F
                                                     2       23.6600000      283.96056600    0.00000000
                                                     2       10.6100000       47.15684600    0.00000000
                                      P - F
                                                     2       25.0400000      182.21223600    0.00000000
                                                     2       10.4400000       35.23335200    0.00000000
                                      D - F
                                                     2       29.5400000      -26.47533300    0.00000000
                                                     2       10.1800000       -1.82578700    0.00000000
    2          8
                                   No pseudopotential on this center.
    3          8
                                   No pseudopotential on this center.
    4          7
                                   No pseudopotential on this center.
    5          7
                                   No pseudopotential on this center.
    6          6
                                   No pseudopotential on this center.
    7          6
                                   No pseudopotential on this center.
    8          6
                                   No pseudopotential on this center.
    9          6
                                   No pseudopotential on this center.
   10          6
                                   No pseudopotential on this center.
   11          6
                                   No pseudopotential on this center.
   12          6
                                   No pseudopotential on this center.
   13          6
                                   No pseudopotential on this center.
   14          6
                                   No pseudopotential on this center.
   15          6
                                   No pseudopotential on this center.
   16          6
                                   No pseudopotential on this center.
   17          6
                                   No pseudopotential on this center.
   18          6
                                   No pseudopotential on this center.
   19          6
                                   No pseudopotential on this center.
   20          6
                                   No pseudopotential on this center.
   21          6
                                   No pseudopotential on this center.
   22          6
                                   No pseudopotential on this center.
   23          6
                                   No pseudopotential on this center.
   24          6
                                   No pseudopotential on this center.
   25          6
                                   No pseudopotential on this center.
   26          6
                                   No pseudopotential on this center.
   27          6
                                   No pseudopotential on this center.
   28          6
                                   No pseudopotential on this center.
   29          6
                                   No pseudopotential on this center.
   30          6
                                   No pseudopotential on this center.
   31          6
                                   No pseudopotential on this center.
   32          6
                                   No pseudopotential on this center.
   33          6
                                   No pseudopotential on this center.
   34          6
                                   No pseudopotential on this center.
   35          6
                                   No pseudopotential on this center.
   36          6
                                   No pseudopotential on this center.
   37          6
                                   No pseudopotential on this center.
   38          6
                                   No pseudopotential on this center.
   39          6
                                   No pseudopotential on this center.
   40          6
                                   No pseudopotential on this center.
   41          6
                                   No pseudopotential on this center.
   42          1
                                   No pseudopotential on this center.
   43          1
                                   No pseudopotential on this center.
   44          1
                                   No pseudopotential on this center.
   45          1
                                   No pseudopotential on this center.
   46          1
                                   No pseudopotential on this center.
   47          1
                                   No pseudopotential on this center.
   48          1
                                   No pseudopotential on this center.
   49          1
                                   No pseudopotential on this center.
   50          1
                                   No pseudopotential on this center.
   51          1
                                   No pseudopotential on this center.
   52          1
                                   No pseudopotential on this center.
   53          1
                                   No pseudopotential on this center.
   54          1
                                   No pseudopotential on this center.
   55          1
                                   No pseudopotential on this center.
   56          1
                                   No pseudopotential on this center.
   57          1
                                   No pseudopotential on this center.
   58          1
                                   No pseudopotential on this center.
   59          1
                                   No pseudopotential on this center.
   60          1
                                   No pseudopotential on this center.
   61          1
                                   No pseudopotential on this center.
   62          1
                                   No pseudopotential on this center.
   63          1
                                   No pseudopotential on this center.
   64          1
                                   No pseudopotential on this center.
   65          1
                                   No pseudopotential on this center.
   66          1
                                   No pseudopotential on this center.
   67          1
                                   No pseudopotential on this center.
   68          1
                                   No pseudopotential on this center.
   69          1
                                   No pseudopotential on this center.
   70          1
                                   No pseudopotential on this center.
   71          1
                                   No pseudopotential on this center.
   72          1
                                   No pseudopotential on this center.
   73          1
                                   No pseudopotential on this center.
   74          1
                                   No pseudopotential on this center.
   75          1
                                   No pseudopotential on this center.
   76          1
                                   No pseudopotential on this center.
   77          1
                                   No pseudopotential on this center.
   78          1
                                   No pseudopotential on this center.
   79          1
                                   No pseudopotential on this center.
   80          1
                                   No pseudopotential on this center.
   81          1
                                   No pseudopotential on this center.
   82          1
                                   No pseudopotential on this center.
   83          1
                                   No pseudopotential on this center.
   84          1
                                   No pseudopotential on this center.
   85          1
                                   No pseudopotential on this center.
   86          1
                                   No pseudopotential on this center.
   87          1
                                   No pseudopotential on this center.
   88          1
                                   No pseudopotential on this center.
   89          1
                                   No pseudopotential on this center.
   90          1
                                   No pseudopotential on this center.
   91          1
                                   No pseudopotential on this center.
   92          1
                                   No pseudopotential on this center.
   93          1
                                   No pseudopotential on this center.
 ======================================================================================================
  1287 basis functions,  1983 primitive gaussians,  1333 cartesian basis functions
   158 alpha electrons      157 beta electrons
       nuclear repulsion energy      5396.8072954175 Hartrees.
 NAtoms=   93 NActive=   93 NUniq=   93 SFac= 1.00D+00 NAtFMM=   60 NAOKFM=T Big=T
 Integral buffers will be    131072 words long.
 Raffenetti 2 integral format.
 Two-electron integral symmetry is turned off.
 Standard density basis: Auto (5D, 7F)
  5934 Density fitting functions
 Force inversion solution in PCM.
 ------------------------------------------------------------------------------
 Polarizable Continuum Model (PCM)
 =================================
 Model                : PCM.
 Atomic radii         : SMD-Coulomb.
 Polarization charges : Total charges.
 Charge compensation  : None.
 Solution method      : Matrix inversion.
 Cavity type          : VdW (van der Waals Surface) (Alpha=1.000).
 Cavity algorithm     : GePol (No added spheres)
                        Default sphere list used, NSphG=   93.
                        Lebedev-Laikov grids with approx.  5.0 points / Ang**2.
                        Smoothing algorithm: York/Karplus (Gamma=1.0000).
                        Polarization charges: spherical gaussians, with
                                              point-specific exponents (IZeta= 3).
                        Self-potential: point-specific (ISelfS= 7).
                        Self-field    : sphere-specific E.n sum rule (ISelfD= 2).
 1st derivatives      : Analytical E(r).r(x)/FMM algorithm (CHGder, D1EAlg=3).
                        Cavity 1st derivative terms included.
 2nd derivatives      : Analytical E(r).r(xy)/FMM algorithm (CHGder, D2EAlg=3).
                        Cavity 2nd derivative terms included.
 Solvent              : n,n-DiMethylFormamide, Eps=  37.219000 Eps(inf)=   2.046330
 ------------------------------------------------------------------------------
 ------------------------------------------------------------------------------
 Atomic radii for non-electrostatic terms: SMD-CDS.
 ------------------------------------------------------------------------------
 Nuclear repulsion after PCM non-electrostatic terms =     5396.8004728758 Hartrees.
 One-electron integrals computed using PRISM.
   1 Symmetry operations used in ECPInt.
 ECPInt:  NShTT=  132870 NPrTT=  411758 LenC2=  103960 LenP2D=  215704.
 LDataN:  DoStor=T MaxTD1= 6 Len=  172
 Number of processors reduced to  53 by ecpmxn.
 NBasis=  1287 RedAO= T EigKep=  1.04D-06  NBF=  1287
 NBsUse=  1271 1.00D-06 EigRej=  8.34D-07 NBFU=  1271
 NBasis=     1287 NBas6D=     1333 NTT=      828828   NTT6D=   889111
 NDBShl=      968 NDBF=       5934 NDBF6D=     6973  NNucDB=        0
 IDenFi=        2 ISolve=        0 FullAP=F BlkAPC=T NucTyp=        0
 TolInv= 1.00D-06 TolIt=  1.00D-10 IR12=0.
 FoFCou: FMM=F IPFlag=           0 FMFlag=           0 FMFlg1=           0
         NFxFlg=           0 DoJE=F BraDBF=T KetDBF=T FulRan=T
         wScrn=  0.000000 ICntrl=       600 IOpCl=  3 I1Cent=           6 NGrid=           0
         NMat0=    1 NMatS0=   6973 NMatT0=    0 NMatD0=    1 NMtDS0=    0 NMtDT0=    0
 Symmetry not used in FoFCou.
 DBF EigKep=  1.00D-06 EigRej=  9.99D-07
 NDBF=   5934  NBFD=  5934
 NRank=  5518 NBFDU=  5518
 S*AI*S=  19.9204464662    
 ExpMin= 1.00D-02 ExpMax= 8.59D+03 ExpMxC= 1.30D+03 IAcc=3 IRadAn=         5 AccDes= 0.00D+00
 Harris functional with IExCor= 1009 and IRadAn=       5 diagonalized for initial guess.
 HarFok:  IExCor= 1009 AccDes= 0.00D+00 IRadAn=         5 IDoV= 1 UseB2=F ITyADJ=14
 ICtDFT=  3500011 ScaDFX=  1.000000  1.000000  1.000000  1.000000
 FoFCou: FMM=F IPFlag=           0 FMFlag=      100000 FMFlg1=        2001
         NFxFlg=           0 DoJE=T BraDBF=F KetDBF=T FulRan=T
         wScrn=  0.000000 ICntrl=       500 IOpCl=  0 I1Cent=   200000004 NGrid=           0
         NMat0=    1 NMatS0=      1 NMatT0=    0 NMatD0=    1 NMtDS0=    0 NMtDT0=    0
 Symmetry not used in FoFCou.
 Initial guess <Sx>= 0.0000 <Sy>= 0.0000 <Sz>= 0.5000 <S**2>= 0.7500 S= 0.5000
 Requested convergence on RMS density matrix=1.00D-08 within  32 cycles.
 Requested convergence on MAX density matrix=1.00D-06.
 Requested convergence on             energy=1.00D-06.
 No special actions if energy rises.
 FoFCou: FMM=F IPFlag=           0 FMFlag=      100000 FMFlg1=        2001
         NFxFlg=           0 DoJE=T BraDBF=T KetDBF=F FulRan=T
         wScrn=  0.000000 ICntrl=       500 IOpCl=  0 I1Cent=           5 NGrid=           0
         NMat0=    1 NMatS0=      1 NMatT0=    0 NMatD0=    1 NMtDS0=    0 NMtDT0=    0
 Symmetry not used in FoFCou.
 Inv3:  Mode=1 IEnd=   101024427.
 Iteration    1 A*A^-1 deviation from unit magnitude is 3.77D-15 for    378.
 Iteration    1 A*A^-1 deviation from orthogonality  is 3.12D-15 for   2818    597.
 Iteration    1 A^-1*A deviation from unit magnitude is 3.77D-15 for    378.
 Iteration    1 A^-1*A deviation from orthogonality  is 9.20D-15 for   3868   3864.
 EnCoef did    17 forward-backward iterations
 Restarting incremental Fock formation.
 Rare condition: small coef for last iteration:  0.000D+00
 Rare condition: small coef for last iteration:  0.000D+00
 Rare condition: small coef for last iteration:  0.000D+00
 >>>>>>>>>> Convergence criterion not met.
 Error on total polarization charges =  0.09156
 SCF Done:  E(UM06L) =  -1809.37780859     A.U. after   33 cycles
[...]
 473,0.00002312,-0.00000086,-0.00000287,-0.00000004,0.00000448,-0.00005
 556,0.00002395,-0.00000721,0.00006037,-0.00005658,-0.00000661,-0.00008
 471,-0.00011957,0.00001183,0.00000893,-0.00003984,0.00000503,-0.000030
 19,-0.00007980,-0.00000146,0.00000986,0.00000641,-0.00000413,-0.000001
 08,0.00001297,0.00000004,0.00002636,0.00000029,-0.00000527,-0.00005883
 ,0.00001517,0.00001377,-0.00004466,0.00000579,0.00001559,0.00010458,-0
 .00001030,-0.00001327,-0.00001323,-0.00000078,0.00000075,0.00001737,-0
 .00000355,-0.00000258,-0.00013726,0.00002963,0.00002307,0.00033413,0.0
 0023269,-0.00002702,-0.00036270,0.00001844,-0.00006982,-0.00037333,0.0
 0154936,0.00037918,-0.00000161,-0.00000157,0.00000156,-0.00000185,-0.0
 0000106,-0.00000171,-0.00000584,-0.00000118,0.00000378,-0.00000206,-0.
 00000377,-0.00000608,0.00000640,-0.00000344,0.00000141,0.00000189,-0.0
 0000338,0.00000205,0.00000404,-0.00000385,-0.00000098,0.00000344,0.000
 00096,-0.00000520,0.00000603,0.00000093,0.00000383,-0.00001136,-0.0000
 0609,0.00000487,-0.00000862,-0.00000156,-0.00000758,-0.00000604,0.0000
 0575,0.00000149,0.00052893,0.00136118,-0.00081137,-0.00042491,-0.00133
 210,-0.00087695,-0.00127811,-0.00098091,0.00053689,0.10979840,-0.24588
 408,0.02382509,0.00000429,-0.00000014,-0.00000128,-0.00000409,-0.00000
 068,0.00000018,-0.00000005,0.00000287,-0.00000211,-0.00000061,0.000007
 68,-0.00000053,0.00000410,0.00001104,-0.00000076,0.00008780,-0.0000783
 0,-0.00000673,0.00003130,0.00000123,0.00000708,0.00015188,-0.00033327,
 -0.00002200,-0.00000082,-0.00000507,-0.00000021,0.00000319,0.00000491,
 0.00000117,0.00000065,-0.00000054,0.00000113,0.00000234,-0.00000030,0.
 00000102,0.00000063,0.00000142,-0.00000353,-0.00000178,-0.00000497,0.0
 0000222,0.00000029,-0.00000135,0.00000032,0.00000050,-0.00000006,-0.00
 000181,0.00000095,-0.00000025,-0.00000077,0.00000204,-0.00000515,0.000
 00246,-0.00000340,0.00000701,-0.00000311,0.00000013,-0.00000016,0.0000
 0242,-0.00000184,-0.00000343,-0.00000014,-0.00000048,-0.00000014,-0.00
 000058,-0.00000075,-0.00000046,-0.00000058,-0.00000066,0.00000119,0.00
 000103,-0.00000290,0.00000446,0.00000273,0.00000189,-0.00000540,-0.000
 00397,0.00000101,-0.00000016,0.00000006,-0.00000034,-0.00000029,-0.000
 00043,-0.00000011,-0.00000035,0.00000060,0.00000419,-0.00000046,0.0000
 0136,0.00000075,-0.00000118,-0.00000031,-0.00000104,0.00000047,0.00000
 034,0.00000068,0.00000101,0.00000162,-0.00000091,0.00000117,-0.0000012
 6,0.00000197,-0.00000115,-0.00000274,-0.00000482,0.00000301,-0.0000013
 0,0.00000371,0.00000200,0.00000184,0.00000150,0.00000048,-0.00000094,0
 .00000052,-0.00000019,0.00000063,0.00000200,0.00000012,0.00000038,-0.0
 0000301,0.00000218,0.00000475,-0.00000393,-0.00000082,0.00000030,0.000
 00163,-0.00000012,0.00000023,0.00000002,0.00000091,-0.00000158,-0.0000
 9769,0.00027427,0.00001548,0.00037256,-0.00023366,0.00022646,0.0000774
 7,0.00074133,0.00022036,-0.00014392,0.00016079,0.00025852,-0.00001115,
 0.00012497,-0.00032835,0.00024710,0.00072774,-0.00020004,-0.12039127,0
 .26259381,0.00019672,-0.00005745,0.00000298,-0.00012030,0.00003775,0.0
 0001532,-0.00007948,0.00001484,0.00000786,-0.00003569,0.00003370,0.000
 44016,-0.00007465,-0.00027535,0.00005674,-0.00002523,0.00000357,0.0000
 0221,-0.00004069,-0.00003239,0.00000905,0.00007937,0.00002331,-0.00002
 029,0.00010862,-0.00004021,-0.00001529,-0.00003795,-0.00000941,-0.0000
 3237,0.00016987,0.00016679,-0.00004405,-0.00000909,-0.00000276,0.00000
 447,0.00003634,0.00010563,0.00000789,-0.00000249,-0.00000631,0.0000021
 9,0.00000508,-0.00001342,-0.00000346,0.00000340,0.00001170,-0.00000036
 ,0.00007995,-0.00002499,-0.00001749,0.00000467,0.00000706,-0.00000852,
 -0.00012403,0.00001917,0.00001516,0.00000589,0.00000278,-0.00000032,-0
 .00001683,0.00000683,0.00000161,-0.00003472,0.00002662,0.00004148,-0.0
 0026741,-0.00020292,0.00017972,0.00039365,-0.00009376,-0.00092463,-0.0
 0181651,-0.00152768,-0.00601092,0.00000235,0.00000201,-0.00000134,0.00
 000101,0.00000027,-0.00000069,0.00000266,0.00000050,-0.00000119,0.0000
 0046,0.00000494,0.00000663,-0.00000672,0.00000483,0.00000310,-0.000001
 68,0.00000776,-0.00000346,-0.00000029,0.00000209,0.00000133,-0.0000021
 0,-0.00000165,0.00000245,-0.00000491,-0.00000150,-0.00000221,0.0000054
 9,0.00000182,-0.00000546,0.00000754,-0.00000032,0.00000427,0.00000629,
 -0.00000575,-0.00000012,0.00373283,0.00082574,-0.00321753,-0.01545203,
 0.02881593,-0.00426492,0.01027951,-0.02110976,0.00228019,-0.01294679,0
 .02318294,-0.04814878,-0.00000271,0.00000019,0.00000063,0.00000355,-0.
 00000054,-0.00000339,-0.00000198,-0.00000289,-0.00000063,0.00000073,-0
 .00000910,-0.00000199,-0.00001368,-0.00000466,0.00000651,-0.00005963,-
 0.00003166,-0.00004168,-0.00002867,0.00000107,0.00008164,-0.00123156,0
 .00162361,-0.00034305,-0.00000027,0.00000262,0.00000106,-0.00000209,-0
 .00000357,-0.00000209,-0.00000165,0.00000069,0.00000143,-0.00000121,0.
 00000005,-0.00000046,-0.00000132,-0.00000137,0.00000383,0.00000105,0.0
 0000317,-0.00000160,0.00000016,0.00000143,-0.00000060,-0.00000047,0.00
 000035,0.00000060,-0.00000023,0.00000011,0.00000026,-0.00000199,0.0000
 0530,-0.00000236,0.00000322,-0.00000748,0.00000315,0.00000056,0.000000
 88,-0.00000179,0.00000079,0.00000462,0.00000014,0.00000120,0.00000101,
 0.00000042,0.00000088,0.00000006,-0.00000044,0.00000253,0.00000101,0.0
 0000071,0.00000070,-0.00000483,-0.00000560,-0.00000095,0.00000407,0.00
 000429,-0.00000135,-0.00000051,0.00000017,-0.00000091,-0.00000039,-0.0
 0000021,0.00000013,-0.00000059,-0.00000029,-0.00000188,0.00000075,-0.0
 0000094,-0.00000017,0.00000042,0.00000048,0.00000036,0.00000074,-0.000
 00023,0.00000007,0.00000009,-0.00000016,0.00000024,-0.00000040,0.00000
 077,-0.00000064,0.00000111,0.00000185,0.00000482,-0.00000303,0.0000019
 4,-0.00000063,-0.00000047,0.00000038,-0.00000088,0.00000080,0.00000116
 ,0.00000019,-0.00000006,0.00000004,-0.00000085,-0.00000046,0.00000018,
 0.00000299,-0.00000151,-0.00000432,0.00000467,0.00000146,-0.00000106,-
 0.00000070,0.00000047,-0.00000040,-0.00000070,-0.00000086,0.00000098,-
 0.00017298,0.00022132,-0.00004906,0.00117422,-0.00123300,0.00026937,0.
 00040815,-0.00036882,0.00150592,0.00072590,-0.00002867,0.00135263,-0.0
 0087411,-0.00008499,0.00081013,-0.00065941,0.00040298,0.00077528,0.013
 79172,-0.02580951,0.05571853,-0.00008311,0.00004203,-0.00006747,0.0000
 7521,-0.00002205,-0.00000451,0.00001079,-0.00000672,0.00000917,-0.0001
 5408,0.00003318,-0.00002274,0.00011366,0.00010353,0.00022934,0.0000175
 1,-0.00000718,-0.00000073,0.00001990,0.00000873,0.00000295,-0.00006575
 ,-0.00002133,0.00001411,-0.00001558,0.00000548,-0.00002318,-0.00002430
 ,0.00003842,0.00000849,-0.00000036,-0.00000945,-0.00004805,0.00000042,
 0.00001801,-0.00000540,-0.00001927,-0.00004197,-0.00000272,0.00000134,
 0.00000093,-0.00000173,-0.00000307,0.00000479,0.00000043,-0.00001376,-
 0.00001135,0.00000445,-0.00002407,0.00001170,0.00000709,0.00001546,-0.
 00000106,-0.00000037,0.00003977,0.00000464,-0.00002355,-0.00000345,-0.
 00000053,-0.00000059,0.00000603,-0.00000021,-0.00000229,0.00007467,0.0
 0002724,-0.00002805,0.00022833,0.00015842,0.00022899,-0.00002410,0.000
 10195,0.00002869,0.00004956,-0.00114297,0.00041008,-0.00000078,0.00000
 120,-0.00000071,-0.00000080,0.00000089,0.00000078,-0.00000045,0.000000
 30,0.00000072,-0.00000182,-0.00000173,-0.00000315,0.00000378,-0.000002
 76,0.00000042,-0.00000141,-0.00000150,-0.00000037,0.00000038,-0.000000
 16,0.00000064,0.00000030,-0.00000010,-0.00000038,0.00000034,-0.0000001
 4,0.00000026,-0.00000173,-0.00000034,-0.00000103,-0.00000360,-0.000001
 50,-0.00000242,-0.00000263,0.00000426,-0.00000012,0.00108300,-0.001198
 05,-0.00075914,-0.00842163,-0.00818674,-0.00249522,-0.01761630,-0.0184
 1963,-0.00317663,-0.15624699,-0.11969759,-0.02837525,0.00000087,-0.000
 00028,0.,-0.00000254,-0.00000050,-0.00000067,0.00000103,0.00000138,-0.
 00000087,0.00000267,0.00001971,-0.00000888,0.00000604,-0.00000580,-0.0
 0000557,0.00007707,-0.00022562,0.00022291,0.00005587,0.00000429,0.0000
 1916,0.00001630,0.00015070,-0.00002372,0.00000065,-0.00000136,0.000000
 58,0.00000075,0.00000051,-0.00000005,-0.00000091,0.00000007,0.00000132
 ,0.00000096,-0.00000021,0.00000070,0.00000069,-0.00000023,-0.00000138,
 0.00000010,-0.00000122,-0.00000009,0.00000012,0.00000052,-0.00000008,-
 0.00000030,0.00000042,-0.00000106,0.00000091,-0.00000026,0.00000031,0.
 00000125,-0.00000221,0.00000133,-0.00000094,0.00000314,-0.00000112,-0.
 00000002,-0.00000056,0.00000188,-0.00000056,-0.00000236,-0.00000086,-0
 .00000146,-0.00000094,0.00000053,0.00000174,0.00000101,0.00000009,0.00
 000289,0.00000144,0.00000213,-0.00000239,0.00000284,0.00000019,0.00000
 102,-0.00000386,-0.00000153,-0.00000032,-0.00000010,0.,0.00000014,-0.0
 0000039,-0.00000063,0.00000076,-0.00000051,0.00000021,0.00000025,0.000
 00001,-0.00000015,0.00000016,0.00000037,0.00000073,-0.00000008,-0.0000
 0046,-0.00000050,0.00000068,0.00000038,0.00000055,-0.00000010,0.,0.000
 00020,-0.00000025,0.00000029,0.,-0.00000176,0.00000036,0.00000036,0.00
 000043,-0.00000161,-0.00000076,0.00000116,0.00000172,0.00000251,-0.000
 00031,-0.00000077,0.00000107,0.00000010,-0.00000009,-0.00000066,-0.000
 00115,0.00000198,0.00000216,-0.00000161,-0.00000084,0.00000018,0.00000
 085,-0.00000004,0.00000026,-0.00000020,-0.00000065,-0.00000076,0.00000
 169,0.00049207,-0.00008413,0.00028256,0.00013336,0.00010782,-0.0000394
 8,0.00025985,-0.00221459,0.00052610,0.00035388,0.00009074,0.00122108,0
 .00036133,-0.00026286,-0.00332013,0.00050098,0.00350321,0.01009860,0.0
 1162651,0.00291269,0.17205765,-0.00004533,0.00005833,-0.00007287,0.000
 00485,0.00000128,0.00000981,0.00000067,0.00000737,0.00000696,-0.000144
 01,0.00004796,-0.00002332,0.00015417,-0.00032232,0.00043407,0.00000661
 ,-0.00001186,0.00000224,0.00000611,-0.00000372,-0.00000169,-0.00002263
 ,-0.00000121,0.00000811,0.00002924,-0.00003531,-0.00002057,-0.00004126
 ,0.00004626,0.00000510,0.00007214,0.00014319,-0.00006446,-0.00000617,0
 .00002985,-0.00000419,0.00001802,0.00002653,-0.00000090,-0.00000038,-0
 .00000463,0.00000034,0.00000216,-0.00000410,0.00000082,-0.00001959,-0.
 00000454,0.00000490,0.00001688,-0.00000334,-0.00000339,0.00003027,-0.0
 0000462,-0.00000342,-0.00006700,0.00003560,-0.00001181,0.00000363,-0.0
 0000173,-0.00000379,-0.00001040,0.00000275,0.00000034,0.00008506,-0.00
 002505,-0.00003041,-0.00003654,-0.00056351,0.00078211,0.00017143,0.000
 02008,0.00014150,0.00029821,-0.00014164,-0.00031994,0.00000096,0.00000
 267,-0.00000213,0.00000189,0.00000211,-0.00000037,0.00000130,0.0000013
 4,-0.00000118,-0.00000063,0.00000083,0.00000143,-0.00000143,0.00000013
 ,0.00000234,-0.00000190,0.00000047,-0.00000201,-0.00000151,0.00000241,
 0.00000158,-0.00000164,0.00000014,0.00000223,-0.00000299,-0.00000143,-
 0.00000083,0.00000533,0.00000711,-0.00000582,0.00000514,0.00000165,-0.
 00000060,0.00000289,-0.00000263,-0.00000074,0.00062865,0.00099892,0.00
 007429,0.00192162,0.00171505,-0.00014671,0.00176584,0.00051558,0.00072
 099,-0.12066894,-0.18326992,-0.03097344,-0.00000326,0.00000092,0.00000
 021,0.00000092,-0.00000103,-0.00000170,-0.00000045,-0.00000292,-0.0000
 0057,0.00000717,0.00000240,-0.00000942,0.00000062,-0.00000256,0.000002
 51,-0.00005730,0.00000887,0.00017473,-0.00000787,-0.00005491,-0.000004
 09,-0.00016774,0.00014373,-0.00006909,0.00000078,0.00000174,0.00000091
 ,-0.00000230,-0.00000375,-0.00000155,-0.00000073,0.00000042,0.00000139
 ,0.00000006,0.00000066,0.00000052,-0.00000110,-0.00000226,0.00000192,0
 .00000123,0.00000134,-0.00000140,-0.00000028,0.00000196,-0.00000012,-0
 .00000046,0.00000058,0.00000002,0.00000041,-0.00000023,0.00000032,0.,0
 .00000178,-0.00000057,0.00000137,-0.00000159,0.00000007,0.00000012,0.0
 0000103,0.00000047,0.00000013,0.00000047,-0.00000074,-0.00000061,0.000
 00002,-0.00000022,0.00000107,0.00000069,0.00000007,0.00000189,0.000000
 19,0.00000172,-0.00000063,-0.00000129,-0.00000373,-0.00000036,0.000001
 51,0.00000147,-0.00000058,-0.00000041,0.00000016,0.,-0.00000031,-0.000
 00021,0.00000037,-0.00000035,0.00000033,-0.00000214,0.00000064,-0.0000
 0062,-0.00000019,0.00000047,0.00000053,0.00000018,-0.00000085,-0.00000
 018,0.00000061,-0.00000001,-0.00000023,0.00000117,-0.00000056,0.000000
 14,-0.00000157,0.00000081,0.00000154,0.00000113,-0.00000252,0.00000321
 ,-0.00000031,-0.00000373,-0.00000182,0.00000229,0.00000243,0.00000162,
 0.,-0.00000156,0.00000197,-0.00000097,0.00000067,-0.00000056,0.0000013
 1,-0.00000082,-0.00000120,0.00000106,0.00000067,-0.00000031,0.00000047
 ,0.00000083,0.00000133,-0.00000012,-0.00000266,0.00000107,-0.00040822,
 0.00022074,-0.00010877,-0.00003883,0.00014217,0.00003603,0.00022309,0.
 00119823,0.00029837,-0.00016401,0.00014817,-0.00032481,-0.00011305,0.0
 0023062,0.00031975,0.00036042,0.00122492,0.00006620,-0.01833660,-0.018
 93440,-0.00458393,0.13454109,0.19641301,0.00009649,0.00001757,0.000013
 00,0.00001887,-0.00001871,-0.00001608,0.00001229,-0.00000485,0.0000029
 5,-0.00006044,0.00002046,0.00014595,-0.00013135,0.00066746,0.00028140,
 0.00000738,0.00000141,0.00000119,0.00001597,-0.00000171,-0.00000359,-0
 .00002303,-0.00000920,0.00000411,-0.00005069,0.00001449,-0.00000291,-0
 .00000449,0.00000176,-0.00001257,0.00006402,-0.00009108,-0.00004435,0.
 00000254,-0.00000274,0.00000132,-0.00001176,-0.00004125,0.00000344,0.0
 0000009,0.00000353,-0.00000142,-0.00000625,0.00000564,0.00000406,0.000
 00274,-0.00000511,0.00000016,-0.00002380,0.00001049,0.00000572,-0.0000
 0509,0.00000063,0.00000011,0.00004711,0.00000848,0.00001233,-0.0000020
 5,-0.00000137,0.00000009,0.00000697,-0.00000372,-0.00000249,0.00000300
 ,0.00003567,-0.00000077,0.00003185,0.00069015,-0.00031202,0.00005230,0
 .00001061,-0.00027437,0.00041924,-0.00084486,0.00120489,-0.00000147,-0
 .00000162,0.00000242,-0.00000065,-0.00000182,-0.00000027,-0.00000062,-
 0.00000004,-0.00000018,0.00000010,-0.00000344,-0.00000177,0.00000449,-
 0.00000422,-0.00000108,0.00000034,-0.00000441,0.00000188,0.00000040,-0
 .00000031,0.00000011,0.00000084,0.00000104,-0.00000076,0.00000031,0.00
 000046,0.00000031,-0.00000150,0.00000209,0.00000413,-0.00000411,-0.000
 00124,-0.00000087,-0.00000375,0.00000406,-0.00000023,-0.00091553,0.000
 71358,0.00063498,-0.02089589,-0.02459363,-0.00653358,0.01632788,0.0176
 5628,0.00215175,-0.02853259,-0.03082535,-0.05297679,0.00000042,0.00000
 016,-0.00000096,-0.00000253,-0.00000164,0.00000022,0.00000009,0.000000
 40,-0.00000168,0.00000492,-0.00000107,-0.00000201,0.00000497,0.0000002
 9,-0.00000081,0.00013260,-0.00011116,-0.00031363,0.00000766,-0.0000022
 6,-0.00001813,0.00024949,0.00007121,-0.00001230,-0.00000009,-0.0000008
 2,-0.00000014,0.00000086,0.00000124,0.00000132,0.00000079,0.00000007,-
 0.00000187,0.00000101,-0.00000007,0.00000052,0.00000003,0.00000022,-0.
 00000237,-0.00000023,-0.00000030,0.00000056,0.00000003,-0.00000106,0.0
 0000019,-0.00000035,0.00000007,0.00000055,0.00000034,-0.00000057,0.000
 00037,0.00000106,-0.00000232,0.00000074,-0.00000222,0.00000334,-0.0000
 0254,-0.00000109,-0.00000079,0.00000083,-0.00000041,-0.00000282,-0.000
 00046,-0.00000028,0.00000031,0.00000017,0.00000024,-0.00000025,0.00000
 005,-0.00000168,-0.00000107,-0.00000095,0.00000090,0.00000171,0.000003
 00,0.00000118,-0.00000194,-0.00000188,0.00000077,0.00000046,0.,0.00000
 044,0.00000015,-0.00000010,0.00000025,0.00000030,0.00000011,0.00000082
 ,-0.00000014,0.00000036,0.00000018,0.00000018,-0.00000011,-0.00000007,
 -0.00000034,0.00000022,0.00000017,0.00000013,-0.00000024,0.00000038,0.
 00000012,0.00000021,0.00000057,-0.00000036,-0.00000029,-0.00000162,0.0
 0000066,-0.00000135,-0.00000059,0.00000030,0.00000126,0.00000078,-0.00
 000011,-0.00000165,0.00000020,-0.00000010,-0.00000007,-0.00000014,0.00
 000071,-0.00000071,-0.00000208,0.00000116,0.00000263,-0.00000166,-0.00
 000145,0.00000054,-0.00000016,-0.00000013,0.00000064,0.00000034,-0.000
 00092,0.00000019,-0.00029337,-0.00031762,0.00001125,-0.00023930,0.0000
 5195,-0.00008837,-0.00291037,0.00088419,-0.00579518,0.00071332,0.00001
 797,0.00131715,-0.00077168,0.00022762,0.00099213,0.00436753,-0.0004959
 5,-0.00236671,0.00246111,0.00258246,-0.00044357,0.02983630,0.03369272,
 0.06243267\\0.00000033,0.00000511,0.00000005,0.00000223,-0.00000051,0.
 00000066,-0.00000064,-0.00000310,-0.00000263,-0.00000214,-0.00000255,0
 .00001092,0.00000139,-0.00000352,0.00000361,-0.00000047,-0.00000154,-0
 .00000127,-0.00000096,0.00000063,-0.00000644,-0.00000140,-0.00000146,0
 .00000208,-0.00000058,-0.00000052,-0.00000250,0.00000104,0.00000097,0.
 00000495,-0.00000034,-0.00000018,0.00000073,0.00000051,-0.00000058,0.0
 0000378,-0.00000093,-0.00000084,-0.00000403,-0.00000200,-0.00000192,-0
 .00000541,-0.00000202,0.00000084,-0.00000950,-0.00000044,-0.00000181,0
 .00000006,-0.00000224,0.00000024,-0.00000667,0.00000138,-0.00000082,0.
 00000623,0.00000042,-0.00000014,-0.00000051,0.00000047,-0.00000077,0.0
 0000499,-0.00000073,-0.00000017,-0.00000478,0.00000350,0.00000048,0.00
 000790,0.00000134,0.00000120,0.00000355,0.00000223,-0.00000016,0.00001
 032,0.00000102,-0.00000078,0.00001039,-0.00000116,0.00000103,-0.000007
 10,-0.00000338,-0.00000583,-0.00000564,-0.00000257,-0.00000251,-0.0000
 0763,-0.00000272,-0.00000320,-0.00000948,-0.00000248,0.00000081,-0.000
 01321,-0.00000069,0.00000390,-0.00000960,0.00000202,-0.00000032,0.0000
 0905,-0.00000046,-0.00000451,0.00000406,0.00000150,0.00000230,0.000002
 64,0.00000032,0.00000318,-0.00000275,-0.00000203,-0.00000358,-0.000003
 15,-0.00000190,0.00000060,-0.00000889,0.00000430,0.00000605,0.00001045
 ,0.00000320,0.00000011,0.00001244,0.00000469,0.00000565,0.00001247,0.0
 0000418,0.00000359,0.00001327,-0.00000089,-0.00000180,-0.00000191,-0.0
 0000202,0.00000029,-0.00000971,0.00000210,0.00000012,0.00000910,0.0000
 0017,-0.00000047,0.00000206,0.00000269,0.00000050,0.00001057,0.0000012
 3,-0.00000074,0.00000633,0.00000300,0.00000030,0.00001324,0.00000107,-
 0.00000341,0.00001026,-0.00000320,0.00000049,-0.00000945,-0.00000074,0
 .00000142,-0.00000583,-0.00000034,0.00000355,-0.00000720,-0.00000363,-
 0.00000798,-0.00000435,-0.00000293,-0.00000595,-0.00000404,-0.00000470
 ,-0.00000613,-0.00000851,-0.00000329,-0.00000311,-0.00001056,-0.000001
 69,-0.00000013,-0.00000772,-0.00000302,-0.00000487,-0.00000659,-0.0000
 0191,-0.00000274,-0.00001244,-0.00000164,-0.00000192,-0.00000681,-0.00
 000383,-0.00000533,-0.00000982,-0.00000304,0.00000108,-0.00001557,-0.0
 0000355,-0.00000153,-0.00001379,-0.00000183,0.00000332,-0.00001354,0.0
 0000008,0.00000632,-0.00000932,-0.00000075,0.00000339,-0.00000653,-0.0
 0000112,0.00000422,-0.00001166,0.00000205,-0.00000025,0.00000974,0.000
 00291,0.00000232,0.00000985,0.00000153,-0.00000240,0.00001088,-0.00000
 047,-0.00000447,0.00000490,-0.00000101,-0.00000674,0.00000570,-0.00000
 141,-0.00000493,0.00000110,0.00000051,0.00000195,-0.00000038,0.0000023
 1,0.00000487,0.00000319,0.00000151,0.00000229,0.00000330,0.00000033,0.
 00000332,-0.00000338,0.00000114,0.00000295,0.00000015,0.00000108,0.000
 00576,-0.00000399,-0.00000293,-0.00000590,-0.00000435,-0.00000135,-0.0
 0000392,-0.00000004,-0.00000202,-0.00000349,-0.00000353,-0.00000190,0.
 00000042,-0.00000932,-0.00000123,0.00000290,-0.00001025,-0.00000288,-0
 .00000189,-0.00001040,0.00000370,0.00000590,0.00000759,0.00000449,0.00
 000654,0.00001049,0.00000300,-0.00000086,0.00001521,0.00000201,-0.0000
 0157,0.00001167,0.00000571,0.00000907,0.00001263,0.00000516,0.00000539
 ,0.00001582,0.00000452,0.00000453,0.00001408,0.00000315,0.00000394,0.0
 0000972\\\@
 The archive entry for this job was punched.


 Everywhere is walking distance if you have the time.
                                    -- Steven Wright
 Job cpu time:      12 days 14 hours  0 minutes 41.3 seconds.
 Elapsed time:       0 days  3 hours 11 minutes 56.1 seconds.
 File lengths (MBytes):  RWF=  22242 Int=      0 D2E=      0 Chk=    479 Scr=      1
 Normal termination of Gaussian 16 at Tue Dec 17 18:36:13 2024.
3532557.39user 4239.65system 10:29:34elapsed 9362%CPU (0avgtext+0avgdata 63175968maxresident)k
0inputs+18883480outputs (39095major+65092745minor)pagefaults 0swaps
