unknown system                          
           1
    15.000000    0.000000    0.000000
     0.000000   15.000000    0.000000
     0.000000    0.000000   15.000000
   C    Cl   Co   H    Li   N    O 
  92   1   1 173   1  18  18
Direct configuration=    50
   0.84989573  0.88812187  0.77429524
   0.92032489  0.74003757  0.81448394
   0.95221189  0.82079591  0.67638160
   0.70786786  0.30429874  0.01482416
   0.76108249  0.45893693  0.98596860
   0.68531400  0.42472733  0.13394050
   0.06505155  0.60245259  0.52680369
   0.22721576  0.55172755  0.51804342
   0.14318824  0.57919672  0.38007682
   0.03741692  0.97231706  0.87498424
   0.97037990  0.11664681  0.83814148
   0.91001708  0.01896838  0.95768858
   0.86226076  0.38936216  0.72079303
   0.01263880  0.31433087  0.71542849
   0.99922587  0.46776148  0.74557949
   0.27521689  0.09513614  0.97366592
   0.17653270  0.09573328  0.10624830
   0.17781208  0.22762913  0.01447450
   0.89357625  0.25069360  0.49787266
   0.80598406  0.33997028  0.38820464
   0.93110485  0.40860570  0.46531156
   0.36241002  0.15038700  0.51999407
   0.25428949  0.25903848  0.59515671
   0.22722858  0.19025596  0.44496699
   0.85829180  0.64746952  0.37247400
   0.93217390  0.79040215  0.34072410
   0.77571216  0.78675196  0.39163136
   0.99861907  0.44181912  0.12992715
   0.04455556  0.37490090  0.27843844
   0.96317941  0.28713481  0.17243986
   0.96164034  0.03552171  0.20865323
   0.80110346  0.08978562  0.18432988
   0.84892263  0.04156458  0.33006210
   0.22991404  0.80561653  0.38867250
   0.27383085  0.92595510  0.29272187
   0.16069853  0.94733018  0.41369346
   0.81419885  0.82221633  0.14907266
   0.72036405  0.77240791  0.01106655
   0.85926105  0.70006820  0.06170507
   0.17191857  0.70147803  0.15052397
   0.08172400  0.84153437  0.12264890
   0.22223152  0.81761553  0.05414157
   0.56982783  0.23173256  0.68323005
   0.35599786  0.63476607  0.75356257
   0.55517417  0.30288116  0.62007240
   0.41455991  0.61260537  0.68162212
   0.58084581  0.29047184  0.52750881
   0.42474962  0.68596235  0.62131492
   0.61491295  0.13127138  0.55430850
   0.32331498  0.78838601  0.70280687
   0.54403500  0.23998136  0.78474539
   0.32245706  0.55947155  0.81619197
   0.60127636  0.15090239  0.64614278
   0.31730720  0.71660373  0.76254524
   0.60093307  0.20447637  0.50015578
   0.38715827  0.77451455  0.63465966
   0.64977989  0.04233324  0.51819186
   0.27172273  0.88185970  0.70981506
   0.57043317  0.35381666  0.45681503
   0.46549039  0.67109106  0.53666883
   0.52120140  0.48952656  0.38962895
   0.53185245  0.58686847  0.41246206
   0.54296141  0.33725078  0.82661071
   0.61805024  0.18863649  0.83551321
   0.45327745  0.19766805  0.80640740
   0.26613269  0.49516081  0.76270375
   0.40803264  0.51532968  0.85793599
   0.26455414  0.58689409  0.90110895
   0.61149047  0.96444200  0.57518439
   0.62529604  0.02181082  0.42252590
   0.74865886  0.04152352  0.53265611
   0.16837157  0.86085690  0.70734060
   0.29222485  0.94147804  0.63587277
   0.29302809  0.93378844  0.79482717
   0.42356584  0.47072566  0.36986589
   0.48968021  0.64765429  0.34143667
   0.40009336  0.52325791  0.28768264
   0.39547260  0.61855334  0.31239033
   0.64173428  0.51173054  0.62257214
   0.64902971  0.59478097  0.67686976
   0.63079419  0.59421401  0.76979226
   0.67546863  0.67309740  0.64087539
   0.71619494  0.49458217  0.55474593
   0.64665005  0.66953369  0.82211903
   0.67931503  0.75324280  0.69235885
   0.66935688  0.74891579  0.78526329
   0.50481902  0.14423704  0.08643068
   0.39007633  0.25475126  0.13347257
   0.40999977  0.11397512  0.20562820
   0.48141997  0.90607460  0.96446725
   0.61912273  0.95681176  0.03235412
   0.50933450  0.86213285  0.11702726
   0.04420398  0.09942583  0.61286955
   0.50897076  0.49003519  0.57378516
   0.78760139  0.87116207  0.73965622
   0.87431812  0.95680792  0.76329648
   0.83456608  0.88011954  0.84456108
   0.95914024  0.75689649  0.87300226
   0.95601491  0.68837205  0.77814872
   0.85681307  0.71058734  0.83057624
   0.00599769  0.77324398  0.67048600
   0.77249731  0.26955878  0.01184000
   0.66967470  0.30803309  0.95252928
   0.66346323  0.27450214  0.06505653
   0.73140798  0.45630791  0.91819826
   0.83345454  0.44539725  0.97210045
   0.75056984  0.52650835  0.00589299
   0.70684522  0.49000111  0.15647880
   0.03078407  0.53767268  0.54772048
   0.01539090  0.63511298  0.48485072
   0.09217663  0.63659578  0.58466627
   0.27346945  0.52513757  0.47037808
   0.21153962  0.50463351  0.57078630
   0.26630422  0.61160276  0.54747292
   0.20721746  0.54596232  0.35457830
   0.03759170  0.93385450  0.81174912
   0.03534643  0.92900093  0.93574182
   0.10086613  0.01308186  0.87168245
   0.90921520  0.14812464  0.85634183
   0.97708688  0.10974232  0.76784253
   0.02447793  0.15975853  0.86546757
   0.85991058  0.07474690  0.96890366
   0.84003707  0.45920484  0.72068409
   0.82694811  0.35677375  0.77392910
   0.84196019  0.35213713  0.66186934
   0.97040259  0.25967145  0.70190995
   0.05683526  0.29384986  0.77445414
   0.06680810  0.33142418  0.66798409
   0.07609265  0.46187682  0.74224187
   0.24523935  0.03261973  0.94488113
   0.33241565  0.07505229  0.01393055
   0.29339328  0.14768141  0.92151851
   0.22651044  0.10531536  0.15904882
   0.16379225  0.02389808  0.09894819
   0.11465972  0.12279751  0.12695426
   0.12631447  0.24520439  0.06415610
   0.96318427  0.24695372  0.51325920
   0.87923026  0.19790149  0.44877718
   0.85070327  0.23817252  0.55805472
   0.80915256  0.39364300  0.34289904
   0.74284343  0.34852075  0.42600050
   0.80210537  0.27534251  0.35407294
   0.89878341  0.47022784  0.43404618
   0.35938025  0.08389100  0.54139858
   0.40606848  0.19425408  0.55699675
   0.38831576  0.14786587  0.45273735
   0.25624862  0.22762162  0.66142436
   0.18581102  0.28425421  0.58705797
   0.30445058  0.31088061  0.58486932
   0.16237549  0.23087260  0.44276206
   0.92386495  0.63238325  0.33911541
   0.80098203  0.61370526  0.33916733
   0.85766314  0.62974111  0.44100155
   0.92771117  0.86255213  0.34347421
   0.95734809  0.77571068  0.27276115
   0.98351675  0.76585530  0.38625586
   0.77921387  0.86190416  0.38560173
   0.04806431  0.49346427  0.14748199
   0.93627982  0.48046352  0.13531387
   0.00816739  0.41833566  0.06293649
   0.01685645  0.42961900  0.31718434
   0.11770016  0.39654463  0.27495711
   0.04073068  0.31101425  0.31424337
   0.97469349  0.23317127  0.22807042
   0.97120426  0.99579046  0.14606970
   0.00357191  0.00855800  0.26184908
   0.99270197  0.09869273  0.18568398
   0.73412895  0.09801595  0.21875061
   0.78894642  0.05152508  0.12270441
   0.82400138  0.15974188  0.16603743
   0.78040896  0.06836638  0.34362726
   0.27941253  0.79354841  0.44530031
   0.25054511  0.76730206  0.33235021
   0.16146108  0.78285113  0.40395738
   0.25563412  0.88169174  0.23289436
   0.34645852  0.91172526  0.30357500
   0.26226159  0.99528539  0.27562875
   0.16409701  0.01755905  0.39390670
   0.81074385  0.89206755  0.12676439
   0.87435275  0.80152240  0.18216017
   0.75767578  0.81922413  0.19785454
   0.73307629  0.82358000  0.96268478
   0.65794475  0.77416059  0.04791382
   0.71730435  0.70900661  0.97064383
   0.82913600  0.65062877  0.01483579
   0.08474508  0.85679622  0.19555428
   0.01922561  0.81900067  0.09787504
   0.12967846  0.64416162  0.12595047
   0.16228680  0.71604131  0.22219799
   0.10334607  0.90321365  0.09041154
   0.24357935  0.68902809  0.14891639
   0.28225632  0.77412335  0.05230257
   0.61264278  0.09829451  0.69695363
   0.26888241  0.72274731  0.81639903
   0.61247822  0.19393952  0.42902911
   0.39958796  0.82599169  0.58265146
   0.59046607  0.32939330  0.39224002
   0.48131926  0.72962600  0.49713246
   0.55946429  0.46170347  0.33450063
   0.60332116  0.60333950  0.41653802
   0.51535864  0.33326525  0.89436849
   0.60708570  0.36853065  0.83257911
   0.49864389  0.37704088  0.78754771
   0.61721038  0.11539731  0.83955382
   0.68567692  0.20923631  0.81955652
   0.60485960  0.19810179  0.90996870
   0.44992185  0.18204352  0.87964294
   0.39865056  0.24389356  0.78994068
   0.44145731  0.13361734  0.77072112
   0.24700563  0.43840570  0.80522503
   0.20256735  0.52433229  0.74511023
   0.30398432  0.46904432  0.70389740
   0.44050831  0.57728103  0.88316868
   0.39765355  0.46920947  0.91316858
   0.45522952  0.49055354  0.81108637
   0.30000017  0.64070635  0.93604832
   0.19428682  0.60262969  0.89288834
   0.26743239  0.52761211  0.94381274
   0.62974503  0.89708111  0.55009070
   0.63520196  0.97138105  0.64484445
   0.53792104  0.96063766  0.57414211
   0.65701144  0.95839041  0.40154599
   0.55213490  0.01586064  0.41569703
   0.64232331  0.07569945  0.37514396
   0.78442086  0.09015852  0.48861051
   0.76910626  0.07295191  0.59479431
   0.78232889  0.97449477  0.53775607
   0.13840856  0.92188531  0.68304745
   0.15701057  0.80361163  0.65804947
   0.14623928  0.83298640  0.77193879
   0.27078605  0.91820954  0.56997605
   0.26222076  0.00624039  0.64915420
   0.36601611  0.95522435  0.62489042
   0.25424327  0.99677397  0.78876713
   0.26847098  0.89839238  0.85834558
   0.36284810  0.94832003  0.79641852
   0.38525467  0.49207163  0.43015812
   0.41901789  0.39674934  0.36135329
   0.53848588  0.65672955  0.28356658
   0.48510661  0.71352759  0.37031222
   0.33842608  0.49916917  0.25389344
   0.45232710  0.51709833  0.23696127
   0.37139094  0.65952762  0.25401902
   0.35308730  0.62962104  0.37056982
   0.63730202  0.45467927  0.67007016
   0.58890570  0.53490028  0.79088660
   0.69265267  0.68339618  0.56917585
   0.71931482  0.54979646  0.50761517
   0.69842060  0.44114468  0.50809288
   0.78431707  0.48856437  0.57916781
   0.61483580  0.66578682  0.88719060
   0.69436956  0.81274882  0.65515029
   0.67640908  0.80703833  0.82721373
   0.49985851  0.07622627  0.05485142
   0.56532373  0.15341688  0.12489929
   0.50887541  0.18828258  0.02843107
   0.43532475  0.29988109  0.10207465
   0.36787257  0.28024464  0.19902485
   0.32885273  0.25658200  0.09406528
   0.35246519  0.13575039  0.24858570
   0.50987719  0.95320293  0.91451361
   0.41511804  0.93072292  0.98632063
   0.47739237  0.84112009  0.93157654
   0.47798101  0.80126471  0.09551053
   0.46108144  0.91003090  0.14797582
   0.56359086  0.84711209  0.16241770
   0.65199854  0.94579966  0.09853511
   0.01261302  0.96218793  0.54782534
   0.90965183  0.81898998  0.75564245
   0.71817048  0.39809453  0.04836036
   0.14706169  0.58274452  0.46988826
   0.96281513  0.03245359  0.88366542
   0.95780233  0.39011124  0.73101376
   0.21142054  0.14125126  0.02790825
   0.87850088  0.33493108  0.45273856
   0.27309146  0.19485192  0.52235482
   0.85232566  0.74637141  0.36627236
   0.00508551  0.36423413  0.19180129
   0.86789956  0.04546230  0.24045020
   0.21754118  0.89858755  0.36724306
   0.79713614  0.76783722  0.07288681
   0.15160690  0.78041837  0.09727162
   0.54584240  0.43725581  0.46799607
   0.49548947  0.59602185  0.50523297
   0.43334337  0.16984358  0.14251547
   0.54045644  0.90964944  0.03763636
   0.94913165  0.88436629  0.62280568
   0.64133749  0.37330895  0.18017771
   0.08013974  0.60041791  0.32837793
   0.90642260  0.95375246  0.00783684
   0.96754602  0.54061004  0.76268667
   0.20576281  0.27908890  0.95803301
   0.99392701  0.41715648  0.51619788
   0.25372590  0.14770090  0.37713344
   0.70890688  0.74965803  0.42276906
   0.92210892  0.26441602  0.10315960
   0.90158523  0.01403627  0.38935113
   0.11048408  0.91990347  0.47339524
   0.92727245  0.69065639  0.10790664
   0.22160050  0.88901062  0.01259217
   0.51690241  0.37633028  0.64802361
   0.44662787  0.53323209  0.66778587
   0.44839136  0.04323442  0.22471056
   0.64607216  0.99912947  0.96695126
Direct configuration=   100
   0.85886640  0.89646703  0.79280505
   0.92006323  0.74476469  0.80549525
   0.94635911  0.82561569  0.66638294
   0.72029539  0.30409683  0.01696854
   0.76498984  0.46469170  0.98914291
   0.69111574  0.42020970  0.12789557
   0.07346774  0.61681271  0.53398634
   0.22537936  0.54446723  0.51470532
   0.13092945  0.59036694  0.38256491
   0.04238497  0.97222666  0.86979229
   0.97588606  0.12812202  0.86598164
   0.91348453  0.01081901  0.96026650
   0.87775421  0.38673707  0.72422870
   0.02744991  0.32243069  0.71223008
   0.00503613  0.47988629  0.75039244
   0.26692205  0.11551824  0.97067417
   0.16505671  0.09076588  0.09889525
   0.16736158  0.23402483  0.01525321
   0.90349820  0.23575934  0.49173593
   0.80721178  0.32936069  0.39202228
   0.94498350  0.38902617  0.46108387
   0.38103980  0.16862232  0.50234801
   0.27377641  0.26514706  0.58308430
   0.23121625  0.19483006  0.44238193
   0.83813570  0.63938950  0.35265897
   0.93674260  0.78036005  0.36502562
   0.77973860  0.78229241  0.39059414
   0.99997077  0.45003281  0.11845667
   0.05620576  0.38946788  0.26186483
   0.95839287  0.29723747  0.16301281
   0.95236690  0.03394722  0.21798527
   0.80210059  0.08514665  0.17944056
   0.84487163  0.04166618  0.33636363
   0.22764899  0.79352270  0.38763238
   0.28638030  0.94372510  0.32223788
   0.15835176  0.93835730  0.41902103
   0.79146762  0.82637592  0.15169467
   0.73936411  0.77890252  0.01234080
   0.87037298  0.69540739  0.07368763
   0.15212633  0.69070570  0.14182296
   0.06155700  0.82859552  0.11804527
   0.21327525  0.81582807  0.05242097
   0.56013590  0.23666386  0.67452891
   0.35829282  0.63592238  0.76371297
   0.54306916  0.30440855  0.60852793
   0.41083015  0.61514670  0.68646811
   0.56896145  0.28698322  0.52044319
   0.42404713  0.68541874  0.62412035
   0.61166843  0.13148708  0.55553165
   0.32969678  0.78681655  0.71051704
   0.54012131  0.23219914  0.77643871
   0.33121955  0.56163034  0.82835523
   0.58661226  0.15172607  0.64195718
   0.32007164  0.71831951  0.77181372
   0.60122325  0.20065802  0.49618487
   0.38322253  0.77289545  0.63826975
   0.64899273  0.03735959  0.53832316
   0.28068722  0.87625942  0.71959099
   0.56064449  0.35347262  0.45303854
   0.46877455  0.67301882  0.54255129
   0.52683898  0.49421886  0.38616159
   0.53883953  0.58783925  0.41634380
   0.54720743  0.32753094  0.81761712
   0.60989124  0.17281289  0.82854869
   0.44896598  0.18826605  0.78494946
   0.27623899  0.48624160  0.77312816
   0.40699055  0.51095660  0.86837688
   0.26981235  0.58749766  0.90120563
   0.59927178  0.96274925  0.59215994
   0.63093524  0.02108065  0.44091192
   0.74500171  0.03875837  0.56387802
   0.18445607  0.84563042  0.71334000
   0.29836275  0.94084876  0.63886913
   0.30506998  0.91690256  0.81061817
   0.43020864  0.47058757  0.35356329
   0.49952391  0.65008865  0.34343378
   0.38979920  0.53514831  0.28426196
   0.40755766  0.63457782  0.29888877
   0.64661149  0.50395356  0.61924719
   0.64162549  0.58482202  0.66854469
   0.62796704  0.58068414  0.76138621
   0.66996431  0.67303353  0.63056339
   0.70810248  0.51460292  0.54353253
   0.62629724  0.65383824  0.81441601
   0.67492593  0.74232691  0.69018421
   0.65133938  0.73772497  0.77945180
   0.50624763  0.17065397  0.07429226
   0.39019170  0.26123053  0.14395016
   0.43265124  0.11772740  0.21652920
   0.46575869  0.90800225  0.95559890
   0.60751472  0.94872694  0.03312032
   0.49706137  0.86562073  0.12034368
   0.04228892  0.10377846  0.61429267
   0.51480194  0.49144348  0.57399912
   0.78639428  0.88178456  0.79444896
   0.86755494  0.95651333  0.74556681
   0.88279226  0.90456881  0.85890786
   0.93223380  0.77394737  0.87425671
   0.96396215  0.68576781  0.78348338
   0.85299407  0.70898826  0.81332703
   0.97199593  0.76089148  0.63849271
   0.78532042  0.29222684  0.98613516
   0.66805569  0.30102478  0.96526069
   0.70583385  0.25772318  0.07117155
   0.71927128  0.48583437  0.93468902
   0.82070470  0.43786459  0.95167849
   0.78321347  0.52337430  0.03238829
   0.68929304  0.49470877  0.13552807
   0.06628612  0.57117489  0.58816528
   0.01374709  0.61170169  0.49546524
   0.09513248  0.68373716  0.56024973
   0.28856372  0.57999600  0.49617047
   0.22771122  0.47392058  0.49047291
   0.22009824  0.54295800  0.58574944
   0.19392006  0.57621859  0.34757582
   0.01392685  0.95179347  0.80696440
   0.04524529  0.91265972  0.91170039
   0.10629981  0.00002000  0.85786878
   0.91545528  0.13816319  0.82056064
   0.03932858  0.13220606  0.82507164
   0.98048861  0.18034186  0.91665519
   0.86624460  0.06408479  0.97476777
   0.84198497  0.44862411  0.71735031
   0.84148595  0.35486284  0.78389820
   0.87600494  0.33829924  0.66566725
   0.01526551  0.26990190  0.76490651
   0.09644761  0.34043909  0.71243139
   0.02317104  0.30359876  0.64198680
   0.07475368  0.48854129  0.76542427
   0.24609195  0.05045126  0.95100101
   0.32561116  0.10546121  0.01720629
   0.28147201  0.16035113  0.91932926
   0.21694399  0.05097358  0.13141242
   0.12505488  0.03630256  0.06546184
   0.11595848  0.12036573  0.14775899
   0.10909277  0.25710320  0.05694711
   0.97136431  0.23431518  0.53021676
   0.90008099  0.17472878  0.45418514
   0.84906880  0.24004078  0.53752050
   0.79049614  0.40513682  0.38994096
   0.74846051  0.29309273  0.42014965
   0.81318252  0.30195273  0.32292701
   0.93579208  0.45144167  0.41949015
   0.36875195  0.09421083  0.48525244
   0.42119034  0.18508687  0.56169828
   0.42386267  0.18749479  0.44457712
   0.23088379  0.22084763  0.62359811
   0.22766938  0.31846675  0.56428651
   0.33487132  0.28808838  0.61594558
   0.17022553  0.22221484  0.46694485
   0.88654317  0.61774116  0.30527611
   0.77288238  0.62877446  0.32495625
   0.84480767  0.60475342  0.42103375
   0.92739601  0.84965149  0.34315687
   0.98911829  0.75552517  0.32075955
   0.96607495  0.77762154  0.43340042
   0.79199563  0.85299710  0.40308088
   0.07215253  0.46645327  0.11352140
   0.96879375  0.51372388  0.13991623
   0.96851630  0.43067885  0.05364514
   0.04064361  0.45682447  0.29136825
   0.12254006  0.40101913  0.24085472
   0.04794220  0.33259648  0.30709148
   0.95633659  0.25217658  0.22572039
   0.94424821  0.98460762  0.16609585
   0.00363130  0.01769912  0.26760208
   0.98692611  0.08494616  0.17898082
   0.73752628  0.09911732  0.20381187
   0.79580161  0.03495881  0.12740276
   0.83005551  0.14463747  0.14658526
   0.77383847  0.05259730  0.34763990
   0.29555119  0.78625576  0.40645169
   0.20983190  0.75082235  0.32614315
   0.18077770  0.77046991  0.43559856
   0.27886865  0.93955311  0.25117188
   0.35274860  0.92233063  0.34367503
   0.28227602  0.01767420  0.34140945
   0.15979760  0.01071453  0.40089405
   0.79622998  0.89567202  0.12580918
   0.83802629  0.81041976  0.20330622
   0.72473165  0.82320768  0.18151906
   0.75314521  0.85108551  0.98759355
   0.67500933  0.78167942  0.04895792
   0.72764892  0.73950988  0.95231256
   0.87266744  0.67803552  0.99803953
   0.05394530  0.85280759  0.18557487
   0.01332731  0.77391591  0.09905280
   0.09528168  0.65911128  0.11136738
   0.14447844  0.68253703  0.21428323
   0.05660637  0.88585007  0.07485905
   0.21871717  0.66128070  0.13131095
   0.26744154  0.76566430  0.04151446
   0.58164568  0.10226501  0.69675254
   0.27884623  0.73287432  0.82963484
   0.61851054  0.19445601  0.42526639
   0.39655614  0.82316620  0.58828310
   0.56640170  0.32541129  0.38407118
   0.47548631  0.72768457  0.49450324
   0.57622885  0.47383387  0.33430491
   0.61233012  0.60512975  0.42051030
   0.53983210  0.32249075  0.89116520
   0.61500756  0.35913023  0.80090783
   0.49322796  0.37068601  0.79651198
   0.60078847  0.10284081  0.81029827
   0.68286809  0.18838690  0.82222954
   0.59963170  0.16625553  0.90028790
   0.42770288  0.19330307  0.85382738
   0.39757562  0.21915256  0.74406275
   0.45215936  0.11639242  0.76870038
   0.24599381  0.43660037  0.82106511
   0.21635287  0.51360402  0.73568943
   0.32135285  0.44714882  0.73726782
   0.45256206  0.54469473  0.91550428
   0.37439987  0.45233301  0.90095852
   0.44669985  0.48189044  0.81358849
   0.30806169  0.62185182  0.95491306
   0.21135240  0.63117283  0.88040940
   0.24547019  0.52559509  0.93006175
   0.62006973  0.89504010  0.57247732
   0.60919483  0.96894476  0.66523839
   0.52573716  0.96346343  0.57972922
   0.65497280  0.95497798  0.42111879
   0.56084318  0.04045952  0.42771535
   0.66576806  0.06990916  0.39871868
   0.78320183  0.09370341  0.53223949
   0.76071191  0.05243306  0.63650656
   0.77882233  0.97701900  0.54593604
   0.14321052  0.90479448  0.73380884
   0.16701910  0.83382327  0.64639477
   0.17331036  0.78336916  0.74931262
   0.30137144  0.90824899  0.57174208
   0.24204250  0.99277790  0.63190126
   0.35791889  0.97735644  0.64125010
   0.26209095  0.97565340  0.81904203
   0.29235382  0.87210187  0.86325463
   0.37541739  0.94286377  0.80752183
   0.39315297  0.46854834  0.41522897
   0.43553196  0.40650149  0.32057135
   0.54837042  0.65751175  0.29176800
   0.50280349  0.72165714  0.36716815
   0.31756722  0.52149533  0.28545900
   0.41325163  0.51144702  0.21703377
   0.40081181  0.68016131  0.24366933
   0.35744215  0.65623694  0.34959748
   0.64970004  0.44223480  0.65572297
   0.60584583  0.51496171  0.77881856
   0.68702436  0.67733386  0.55970838
   0.69546420  0.56155883  0.48766339
   0.72447092  0.45256937  0.50729693
   0.77037263  0.54350685  0.57370576
   0.60285697  0.64062164  0.88456629
   0.69565621  0.80895537  0.66713927
   0.63503260  0.80032143  0.81313255
   0.49324109  0.10509740  0.04698873
   0.57601517  0.17339272  0.09709809
   0.48731408  0.21712632  0.01617586
   0.42608451  0.31753223  0.10973473
   0.37733511  0.28346519  0.21311290
   0.32502558  0.24877432  0.10782570
   0.38621957  0.13488893  0.27056582
   0.47059831  0.97633546  0.92666776
   0.39526778  0.89886020  0.97588413
   0.48818152  0.85558030  0.90947701
   0.50285637  0.79094017  0.11661383
   0.43116992  0.89021462  0.14083287
   0.54420962  0.88480030  0.17325162
   0.63830695  0.94686366  0.09937461
   0.00551271  0.97445373  0.54185155
   0.91287974  0.82148112  0.75014161
   0.72652190  0.39510241  0.04946458
   0.14488385  0.58657176  0.47298944
   0.98166174  0.03998358  0.90906707
   0.97401427  0.39869333  0.73402769
   0.19229587  0.14917668  0.02302400
   0.89161417  0.31861598  0.44103546
   0.29812953  0.21567223  0.50258825
   0.85060880  0.73549881  0.36243294
   0.99324908  0.37928499  0.18667736
   0.86629094  0.06194817  0.25056120
   0.21542489  0.88994683  0.37135217
   0.80322222  0.75719606  0.08333586
   0.15239075  0.78815939  0.11345973
   0.54023691  0.43724858  0.46411297
   0.50064576  0.59550092  0.51137756
   0.44519763  0.18260670  0.15170294
   0.52766471  0.90606371  0.03339211
   0.93624940  0.88899784  0.61305895
   0.65154557  0.37116858  0.18397832
   0.05910319  0.61127563  0.34709243
   0.90136730  0.93533951  0.99607844
   0.95897802  0.54966514  0.75237411
   0.20189852  0.28287225  0.95725094
   0.01133727  0.38333529  0.51281797
   0.23424046  0.15030128  0.37165710
   0.70278461  0.75116214  0.40197500
   0.92478203  0.28006100  0.09076932
   0.89595379  0.01364537  0.39263612
   0.10709365  0.90938359  0.47658198
   0.92702510  0.67134264  0.13184526
   0.21736832  0.89097772  0.01903304
   0.50175287  0.37893290  0.63530908
   0.44232500  0.53429235  0.66947295
   0.46881097  0.04418379  0.20902013
   0.63856569  0.98729361  0.96482291
Direct configuration=   150
   0.84763983  0.90076981  0.76882457
   0.91643166  0.74626147  0.79439300
   0.93747643  0.82967010  0.65632295
   0.73331599  0.30720229  0.02400264
   0.76631764  0.46772844  0.99309874
   0.69666694  0.41697227  0.13020122
   0.08326408  0.62942178  0.54590427
   0.22427539  0.54901833  0.50972368
   0.11748170  0.58062741  0.39616777
   0.05369776  0.98609193  0.87867759
   0.98614538  0.14192458  0.89624827
   0.92660423  0.01041480  0.98264536
   0.88600866  0.37725169  0.72432033
   0.05176916  0.33694000  0.73278928
   0.00774958  0.49154460  0.73825738
   0.26456455  0.11642943  0.96679745
   0.14594298  0.10074586  0.08355494
   0.15936910  0.24034139  0.01314441
   0.90876913  0.21513628  0.47490912
   0.82382729  0.32147152  0.38406526
   0.95858559  0.37306777  0.46073446
   0.38011286  0.17542596  0.46580786
   0.28963169  0.27352894  0.57650395
   0.23189543  0.21156838  0.43490718
   0.83887021  0.64009900  0.33425519
   0.93214043  0.76489087  0.39048590
   0.76886598  0.77748742  0.39475555
   0.99874202  0.45911805  0.10020542
   0.05590807  0.40326882  0.25002750
   0.96282778  0.31073771  0.15665933
   0.95412926  0.03752544  0.21389811
   0.80197666  0.09112367  0.18975840
   0.84951764  0.04726741  0.33584821
   0.22281395  0.80005539  0.38464672
   0.29084751  0.94307615  0.34383875
   0.15203732  0.93925397  0.43727899
   0.79652265  0.80206509  0.16845661
   0.76411315  0.77448748  0.99399008
   0.86064239  0.68424909  0.08766521
   0.13652481  0.68196294  0.13030874
   0.06340596  0.83498333  0.12279795
   0.21401235  0.81648119  0.06909469
   0.55275442  0.22616618  0.67344800
   0.36003236  0.62851508  0.76434090
   0.54116089  0.30014614  0.61113801
   0.41180643  0.60843323  0.68426735
   0.57108196  0.28306893  0.51963022
   0.42692279  0.68000823  0.62154916
   0.61223312  0.12786628  0.55114465
   0.34164289  0.78449735  0.71051389
   0.53041047  0.22879349  0.77243978
   0.33459006  0.55244594  0.82928750
   0.58485899  0.14778032  0.64271512
   0.32842192  0.71451290  0.77344226
   0.60368735  0.20058729  0.48928134
   0.39243722  0.76938402  0.63524119
   0.63884162  0.02900711  0.53897759
   0.28590718  0.86868835  0.72057097
   0.55792575  0.35338682  0.45353756
   0.46811819  0.66423876  0.53507208
   0.52385447  0.48862448  0.38405083
   0.54212450  0.58378876  0.41090372
   0.53995660  0.32565214  0.80860886
   0.59585551  0.17057058  0.82742444
   0.42678376  0.20095721  0.78894289
   0.28250354  0.47699049  0.78213330
   0.41155364  0.52066335  0.88563296
   0.27096297  0.59494917  0.90018574
   0.57794148  0.96926001  0.59113558
   0.63823010  0.99158535  0.44127132
   0.73782192  0.02520755  0.57579516
   0.18510167  0.84510492  0.71739181
   0.30396937  0.94164843  0.65089673
   0.30111130  0.91222944  0.81264355
   0.42725816  0.48030278  0.34387628
   0.51422730  0.65581371  0.34444070
   0.40956383  0.55052429  0.27218408
   0.41403886  0.63976401  0.32180130
   0.64792032  0.50495352  0.60134926
   0.64188700  0.58604950  0.66152340
   0.61456491  0.57591697  0.75229895
   0.66319355  0.67441344  0.63662415
   0.71716552  0.49611379  0.52399656
   0.60943092  0.64780967  0.81598459
   0.66177771  0.74494651  0.70006421
   0.63082094  0.73233092  0.78587992
   0.50402507  0.18457809  0.06819238
   0.39466507  0.27344360  0.17562362
   0.44781509  0.12678806  0.21099226
   0.46145074  0.90454929  0.95549432
   0.59495472  0.95009746  0.03303225
   0.48273564  0.86056500  0.11734570
   0.04636582  0.10052595  0.61685156
   0.51376866  0.49031098  0.56992460
   0.77520312  0.88839589  0.76455166
   0.85955190  0.95925617  0.73212251
   0.86582614  0.90274692  0.84110396
   0.94847312  0.75845594  0.85624303
   0.95090163  0.70398877  0.75111433
   0.86173887  0.70200955  0.80928587
   0.98745939  0.77765295  0.63755713
   0.80006741  0.29106513  0.99554188
   0.68239826  0.29308931  0.97299844
   0.71876752  0.27105449  0.08633705
   0.72226225  0.47111198  0.93421390
   0.83210321  0.44123125  0.96957422
   0.77599102  0.53057701  0.02937647
   0.71775087  0.48883864  0.14978178
   0.08354502  0.58917095  0.60744999
   0.01494819  0.62504136  0.51158852
   0.10313619  0.69893568  0.55687434
   0.26002492  0.59779470  0.55061783
   0.26857645  0.53596209  0.45221238
   0.21047289  0.48795042  0.54836247
   0.16611370  0.53748032  0.36268541
   0.06106862  0.00487908  0.80624599
   0.03170006  0.91606230  0.87873423
   0.11701325  0.98954339  0.91926960
   0.98472088  0.14340796  0.82456696
   0.04337128  0.17935739  0.92040015
   0.92762428  0.17394926  0.92479494
   0.88803176  0.06605898  0.01490214
   0.84450948  0.43161010  0.75432825
   0.87879872  0.32668370  0.77485896
   0.86708466  0.35368598  0.65921231
   0.08049948  0.32707085  0.79846828
   0.10656596  0.35505995  0.68211838
   0.02305710  0.27540856  0.70497097
   0.07997244  0.50706250  0.72927472
   0.24791289  0.04307393  0.96492966
   0.33045018  0.13165556  0.99290826
   0.25556847  0.15090447  0.90042573
   0.19159909  0.05910373  0.12253292
   0.09897367  0.05268028  0.05900613
   0.11458480  0.14430090  0.13265056
   0.10775104  0.25508813  0.06240658
   0.96817248  0.20922641  0.51390759
   0.92480241  0.17979999  0.41117459
   0.84944764  0.18478070  0.50839078
   0.82153581  0.38815563  0.36286857
   0.75979783  0.30262697  0.41608219
   0.82852569  0.27769999  0.32760899
   0.93108703  0.43634873  0.44031511
   0.35835881  0.11783502  0.43255559
   0.41776281  0.15683402  0.52554157
   0.42752838  0.21127033  0.42272790
   0.28776965  0.22460699  0.63129809
   0.22707180  0.31176380  0.57417889
   0.34954883  0.31630069  0.58890500
   0.17373638  0.25961845  0.45001981
   0.87399732  0.64056004  0.27019977
   0.76585414  0.62624366  0.32063209
   0.86626749  0.59336119  0.37991431
   0.93366461  0.83873762  0.39522730
   0.96747175  0.75050012  0.32838726
   0.97137663  0.73346994  0.44162428
   0.78915041  0.84528608  0.42126609
   0.02823958  0.44603371  0.03545084
   0.02131738  0.52150657  0.13049774
   0.92635256  0.47526938  0.09827153
   0.05097366  0.47249737  0.27023577
   0.12863097  0.38555412  0.23418989
   0.02952862  0.35619125  0.29895977
   0.97604231  0.26497187  0.20859929
   0.96049686  0.97144441  0.18044793
   0.00223917  0.04100123  0.26945201
   0.98805601  0.08795302  0.17075839
   0.74060250  0.10808398  0.23097547
   0.77400844  0.03402357  0.14768406
   0.82181037  0.14359321  0.14293011
   0.78149269  0.08080206  0.35620249
   0.29277356  0.77482421  0.39367891
   0.19207743  0.78180140  0.32376684