unknown system                          
           1
    15.000000    0.000000    0.000000
     0.000000   15.000000    0.000000
     0.000000    0.000000   15.000000
   C    Cl   Co   H    N    O 
  96   1   1 185  19  18
Direct configuration=    50
   0.90357012  0.70794088  0.72314127
   0.77984550  0.75218487  0.60956417
   0.78222077  0.81812755  0.75436055
   0.78051688  0.00229407  0.97752906
   0.81946702  0.16559545  0.95001930
   0.66550795  0.10117814  0.97391716
   0.24677731  0.37891127  0.53411379
   0.23917295  0.54096059  0.52268663
   0.27406265  0.44840213  0.38921042
   0.04183271  0.77235309  0.20097510
   0.04495912  0.76832839  0.04057198
   0.92023093  0.84380363  0.11338326
   0.95771947  0.43537849  0.05435029
   0.95567470  0.42928722  0.88674545
   0.91138858  0.56247906  0.97238917
   0.12898039  0.02075032  0.01198165
   0.03743961  0.97348029  0.88915942
   0.19588633  0.98612852  0.86917077
   0.06486383  0.18841566  0.70172379
   0.95733031  0.08255563  0.68127283
   0.95101288  0.21836866  0.58193295
   0.40893513  0.18518186  0.34547401
   0.41968557  0.12571829  0.49381625
   0.30741962  0.06185222  0.38833822
   0.56222342  0.71929371  0.15754992
   0.70636286  0.76164696  0.08891248
   0.67076295  0.60162487  0.13293152
   0.14069657  0.28828152  0.28903517
   0.07887202  0.13443989  0.33899247
   0.11049740  0.15913801  0.19112742
   0.02324842  0.81044994  0.53273123
   0.05653690  0.91791704  0.42048643
   0.10566383  0.94203631  0.58090934
   0.38259211  0.81947094  0.50033100
   0.43620890  0.87819957  0.34856331
   0.29993320  0.79544452  0.35932562
   0.73762146  0.31943755  0.18078911
   0.82241376  0.34126669  0.32776724
   0.88872478  0.26375700  0.19782933
   0.83447346  0.69921152  0.35689342
   0.98244804  0.61300431  0.39407471
   0.88068914  0.57629162  0.26917407
   0.63555307  0.12918010  0.58361600
   0.36108161  0.42472464  0.78287192
   0.61699040  0.21827847  0.55494602
   0.42556154  0.44908012  0.71790245
   0.62748756  0.23004213  0.45833298
   0.42371542  0.53807627  0.68583150
   0.68103025  0.07541896  0.43445463
   0.29239789  0.56928002  0.77449738
   0.62274073  0.10669592  0.68428540
   0.36386520  0.32573646  0.81676405
   0.66352362  0.06204396  0.52445691
   0.29700485  0.48170382  0.81301748
   0.65786052  0.16107699  0.40211703
   0.35533821  0.59546756  0.71195976
   0.73190566  0.00906940  0.37742451
   0.21035296  0.62663381  0.79000829
   0.61899355  0.32118768  0.42665962
   0.48264760  0.56954431  0.62094311
   0.57765463  0.47487549  0.42450181
   0.58523152  0.55474215  0.48662666
   0.67451179  0.17951393  0.73777998
   0.67140672  0.01663951  0.69982459
   0.52522363  0.11257175  0.71207000
   0.45322366  0.29434638  0.86569281
   0.29294360  0.30761420  0.89625063
   0.33644600  0.26319990  0.73797862
   0.66451043  0.93212453  0.35543159
   0.76985137  0.04932942  0.29373098
   0.81370603  0.96860498  0.42618000
   0.20313077  0.71258336  0.72829246
   0.20693096  0.65427396  0.88763016
   0.12973571  0.56509487  0.76467441
   0.48801454  0.45949351  0.37931641
   0.53926652  0.63689065  0.44342251
   0.45298658  0.54286170  0.32769123
   0.45193714  0.62079590  0.39806948
   0.68341763  0.41478556  0.65295282
   0.67577165  0.45196751  0.74573488
   0.66902135  0.40712784  0.83162673
   0.67083573  0.54611235  0.74983696
   0.75674076  0.45202468  0.59174579
   0.66025435  0.45225278  0.91046091
   0.66219186  0.59268021  0.83027430
   0.65737981  0.54485273  0.91001133
   0.35940466  0.10688404  0.12374311
   0.49364876  0.20332363  0.13661043
   0.50390493  0.04418893  0.15478229
   0.15215908  0.59093451  0.17690802
   0.29601653  0.62635153  0.11841704
   0.25786451  0.46671231  0.13039395
   0.44222390  0.91047150  0.80756966
   0.44004615  0.88208047  0.96841391
   0.57956411  0.86400946  0.88360463
   0.45678476  0.75198114  0.86163506
   0.57123974  0.76413135  0.66442355
   0.56736422  0.40000278  0.58978050
   0.88951708  0.63795557  0.71448225
   0.91298552  0.72986751  0.79121055
   0.96403846  0.73061268  0.69140667
   0.82055897  0.78298253  0.55600025
   0.70879317  0.76956591  0.61365397
   0.78283081  0.67706771  0.59286762
   0.72594025  0.84709172  0.71534053
   0.85016872  0.00118332  0.98960330
   0.76812249  0.95982395  0.91739161
   0.74083333  0.97500922  0.02982810
   0.86097901  0.16841809  0.88971899
   0.85978698  0.16290045  0.01022106
   0.78279516  0.22811132  0.95611655
   0.64143677  0.17113501  0.96631112
   0.29794740  0.38587920  0.59048778
   0.26284081  0.32181076  0.49583108
   0.18351532  0.36663483  0.56833364
   0.27800842  0.54071659  0.58278160
   0.17171828  0.55560539  0.54910713
   0.26428310  0.59721068  0.48109051
   0.26293444  0.51081537  0.34616439
   0.01945450  0.81441830  0.25556454
   0.11783535  0.78041952  0.19529677
   0.02547423  0.70324520  0.21292737
   0.99858664  0.77214708  0.98516494
   0.06332616  0.69578490  0.05181926
   0.10689982  0.80907767  0.02721770
   0.90302789  0.84927310  0.03869709
   0.94896013  0.36378403  0.05426386
   0.91373123  0.46766786  0.10436762
   0.02866303  0.44413389  0.07524347
   0.02527668  0.40343124  0.87493502
   0.92904713  0.47121864  0.83189694
   0.91030703  0.36704795  0.88919316
   0.90179765  0.59457502  0.90830510
   0.16656321  0.07865439  0.02562973
   0.16093516  0.96050931  0.04669720
   0.06014881  0.03665368  0.03232033
   0.99589494  0.03490923  0.89185405
   0.00691105  0.92461900  0.93042202
   0.03888035  0.94419653  0.82216051
   0.17678409  0.96221651  0.80145422
   0.10740647  0.12979288  0.71007863
   0.03694019  0.20599912  0.76732993
   0.10139731  0.24643344  0.67624053
   0.92894024  0.09888835  0.74815679
   0.00926006  0.03113149  0.69080717
   0.90071130  0.05208089  0.64512032
   0.88102042  0.19856527  0.55502841
   0.39790988  0.25841504  0.36013556
   0.37674924  0.17030002  0.28401733
   0.48349222  0.17684139  0.34200172
   0.40416607  0.06719894  0.53955996
   0.41631139  0.18804610  0.53550885
   0.48893131  0.11919506  0.47421899
   0.29582599  0.01661169  0.44358086
   0.50976227  0.66992099  0.12770836
   0.55410953  0.78774653  0.13129939
   0.54999060  0.71604484  0.23034886
   0.72881673  0.81269643  0.13699663
   0.67127511  0.79302831  0.03105099
   0.76383920  0.72665847  0.06152971
   0.73834975  0.58375378  0.11157518
   0.21471439  0.29749571  0.27421433
   0.12925523  0.30813134  0.35801192
   0.10202215  0.33172106  0.24459811
   0.12183927  0.13584239  0.39916128
   0.08743646  0.06480335  0.31224513
   0.00870569  0.14788178  0.35455642
   0.08183826  0.08857162  0.19130788
   0.04830405  0.77024750  0.59005731
   0.02854685  0.77486143  0.46873034
   0.95312992  0.82427191  0.54842144
   0.08937071  0.86716599  0.37485388
   0.10172015  0.97574496  0.40857536
   0.98683929  0.92635348  0.41016710
   0.13197384  0.00649554  0.56474688
   0.32849963  0.84730073  0.54413225
   0.44764869  0.84488045  0.51617272
   0.38317998  0.75093674  0.51603686
   0.49865176  0.83502212  0.33619292
   0.44862281  0.94559153  0.37951360
   0.40526396  0.89354287  0.28823095
   0.30598868  0.79451393  0.28266644
   0.68373896  0.26918918  0.18778266
   0.75896034  0.32395503  0.11135588
   0.70440460  0.38352321  0.19887628
   0.87754570  0.31391922  0.36988544
   0.76225129  0.32289306  0.36063654
   0.83101087  0.41137587  0.32141405
   0.94635535  0.24655332  0.24321060
   0.00465088  0.54463230  0.39245616
   0.97227345  0.63533833  0.46697837
   0.77688664  0.68414726  0.31484890
   0.86089665  0.76492388  0.33678115
   0.03646553  0.65478437  0.36898291
   0.80936784  0.70566861  0.42647051
   0.81600389  0.59339255  0.23904412
   0.67429476  0.99921166  0.55251674
   0.24275235  0.45785411  0.85888060
   0.66781167  0.17475142  0.32515889
   0.35945518  0.66016319  0.67827606
   0.61500421  0.33717166  0.35619765
   0.48427998  0.63700156  0.60144352
   0.62735488  0.48777439  0.37070173
   0.65927974  0.56545293  0.49613497
   0.73201025  0.20237232  0.69773280
   0.62834498  0.23876590  0.74783379
   0.69238043  0.15047724  0.80213734
   0.64108902  0.95280735  0.67686914
   0.73522897  0.01143590  0.66046435
   0.69415224  0.01120284  0.76742623
   0.50180062  0.18273626  0.70951137
   0.47982049  0.07129503  0.66622717
   0.50659562  0.09193763  0.78051898
   0.43938353  0.22489705  0.88758671
   0.51668608  0.30263608  0.82908787
   0.45804141  0.33637628  0.92704567
   0.29711901  0.23547305  0.92112109
   0.31194902  0.35050933  0.95212528
   0.22251159  0.31816570  0.88460029
   0.26353691  0.27596005  0.72374387
   0.37689048  0.26534946  0.67718888
   0.34150892  0.19366174  0.76279136
   0.64945663  0.89632901  0.41674600
   0.60310262  0.96588767  0.33676160
   0.68413462  0.88826588  0.30145306
   0.78679751  0.98436412  0.25532739
   0.72921111  0.09300694  0.25410133
   0.82936657  0.08359949  0.30968995
   0.86932046  0.01764018  0.42922371
   0.79943737  0.94642253  0.49530309
   0.83835661  0.91412547  0.38418361
   0.13873333  0.74499803  0.73890515
   0.25254737  0.76055047  0.75345572
   0.21504167  0.70463177  0.65611095
   0.26429044  0.69729896  0.91066695
   0.14846670  0.69571319  0.89636154
   0.20627472  0.59494424  0.93219408
   0.06678614  0.60463465  0.77101263
   0.13632732  0.54374613  0.69514913
   0.11041608  0.50820827  0.80701093
   0.43153394  0.44009777  0.42613941
   0.48720796  0.40491125  0.33283087
   0.58792597  0.66268181  0.39289106
   0.53491540  0.68558279  0.49588845
   0.38815808  0.53827852  0.29380756
   0.50282573  0.56038396  0.27744266
   0.43621467  0.68395877  0.36160588
   0.39732196  0.60296241  0.44512771
   0.69907469  0.34409455  0.66038084
   0.66146802  0.33535822  0.83129133
   0.67800598  0.58624065  0.68570997
   0.82690016  0.44783763  0.61648393
   0.74346332  0.52222858  0.57720704
   0.75978462  0.40944856  0.53057807
   0.65833927  0.41224755  0.97090570
   0.65963105  0.66388459  0.82279416
   0.64407663  0.58325388  0.97278750
   0.34226730  0.08873051  0.05355924
   0.32532429  0.16896090  0.14000728
   0.32857461  0.05652859  0.16572101
   0.53965088  0.21297592  0.07876314
   0.52143306  0.22380757  0.19890759
   0.43857435  0.25336483  0.12329224
   0.57520526  0.05795708  0.16340546
   0.14509733  0.66079493  0.16779498
   0.13892899  0.57301937  0.24790516
   0.10020162  0.56063515  0.13442909
   0.23282423  0.42777388  0.18565028
   0.33342708  0.45664981  0.12373376
   0.21640371  0.44363874  0.07447520
   0.35891238  0.60073898  0.09393118
   0.38726441  0.73157547  0.88553744
   0.49391823  0.70302564  0.89761794
   0.45967112  0.73929144  0.79188612
   0.37139317  0.91849556  0.80238360
   0.47616296  0.89033481  0.74781089
   0.46192496  0.97578531  0.83381677
   0.47074211  0.84059877  0.01853089
   0.37150948  0.86306849  0.97157375
   0.44412757  0.95484626  0.97543052
   0.60718683  0.86230086  0.81512717
   0.61304564  0.81547327  0.92506020
   0.59751671  0.93061769  0.90764768
   0.82379144  0.76090642  0.69579265
   0.75268838  0.09027729  0.95708225
   0.25112739  0.45443842  0.47701095
   0.99810295  0.79701818  0.11951746
   0.95006933  0.48075315  0.96788872
   0.12397085  0.99836794  0.91840710
   0.99320298  0.16132505  0.64145185
   0.37206766  0.12558381  0.41139300
   0.65209935  0.69168268  0.12992829
   0.11743113  0.19553488  0.27330226
   0.06615054  0.89244075  0.51383825
   0.36676781  0.83641925  0.40527505
   0.81662621  0.29935452  0.23900356
   0.89893070  0.62803411  0.34280916
   0.60258924  0.39474814  0.47302819
   0.54084900  0.52091246  0.57322255
   0.45315667  0.11631533  0.14369679
   0.24052647  0.56245890  0.14713154
   0.47671022  0.84937247  0.88315164
   0.80098041  0.83451650  0.83184539
   0.61973997  0.03808205  0.99895007
   0.30238753  0.38467474  0.34669714
   0.87730758  0.87730855  0.17340273
   0.88563660  0.59306478  0.04661210
   0.27465020  0.00415611  0.89013833
   0.96959864  0.29747463  0.56560886
   0.27506529  0.06311865  0.31258563
   0.62434874  0.54371562  0.17381786
   0.13290439  0.19508800  0.12242569
   0.11145513  0.91479214  0.65820729
   0.23149167  0.76727895  0.39542884
   0.88450001  0.23969129  0.11804793
   0.92402261  0.51420949  0.23766444
   0.57911437  0.27597352  0.60973724
   0.49132930  0.39404904  0.69055718
   0.47062585  0.96926015  0.16847012
   0.27379301  0.70532845  0.11813860
Direct configuration=   100
   0.89479669  0.70321836  0.71222638
   0.78338650  0.74942671  0.60295764
   0.78960101  0.81478806  0.75939410
   0.80077178  0.99518971  0.97288213
   0.82314528  0.16092618  0.93889122
   0.67167844  0.10716354  0.96480825
   0.26431468  0.37420599  0.54124069
   0.21898791  0.54210248  0.52080844
   0.26848633  0.44677420  0.39757439
   0.04461185  0.78870277  0.20785353
   0.02547007  0.76892260  0.03747372
   0.91669343  0.84406451  0.12976855
   0.93684733  0.42391770  0.05260704
   0.96411617  0.43731464  0.89309883
   0.90384250  0.56583852  0.96463765
   0.12381440  0.01463542  0.01772604
   0.02784264  0.97459582  0.88464758
   0.18564298  0.98441718  0.86991710
   0.07132363  0.20980749  0.68918847
   0.94277779  0.08782608  0.67562356
   0.94764349  0.22152726  0.58969884
   0.38910638  0.19481499  0.35279876
   0.40759747  0.10441207  0.49384740
   0.31179513  0.04997009  0.38392065
   0.57317198  0.71389477  0.15338102
   0.72346985  0.73933798  0.08033314
   0.68279524  0.59564694  0.13856444
   0.13224101  0.27721076  0.27758837
   0.08217778  0.13684041  0.34121589
   0.12967007  0.15269984  0.18029721
   0.02718202  0.80688734  0.54249012
   0.07411080  0.92951722  0.43299751
   0.12618149  0.93081946  0.58460842
   0.36674754  0.80634431  0.50098739
   0.44397992  0.86484545  0.37021965
   0.28874444  0.80504058  0.36466716
   0.74185880  0.33093406  0.18290768
   0.83231211  0.34409361  0.32585047
   0.89765447  0.26469403  0.19898397
   0.85477375  0.70406804  0.37317183
   0.97309509  0.59734969  0.39634849
   0.88818571  0.57774921  0.26787282
   0.63537485  0.12876375  0.58138370
   0.37172924  0.43435757  0.79444401
   0.60985446  0.21757453  0.55016538
   0.43368209  0.45416941  0.72304175
   0.63368655  0.23567031  0.45787911
   0.42610893  0.54335670  0.68407768
   0.67517233  0.07869821  0.42746403
   0.29990346  0.58244062  0.78411950
   0.63239034  0.10181306  0.68058224
   0.36711659  0.33360628  0.82623084
   0.66041005  0.06367231  0.51888585
   0.30939741  0.49701800  0.81835640
   0.66674573  0.16664852  0.40272191
   0.36234647  0.60637919  0.71675714
   0.72219821  0.00982909  0.36970700
   0.21316413  0.63129967  0.80334029
   0.62088857  0.32271274  0.42568451
   0.47649287  0.56855808  0.60300897
   0.58284520  0.47438430  0.41957422
   0.58315925  0.55569773  0.48499587
   0.67885126  0.17527845  0.73512764
   0.67339727  0.01414772  0.71002923
   0.53423548  0.09052975  0.71168540
   0.46033668  0.30835627  0.86622076
   0.28872072  0.32022450  0.89034163
   0.34659536  0.26852800  0.74693189
   0.65764578  0.93521302  0.34024879
   0.76155604  0.04986710  0.28281432
   0.79046608  0.96661551  0.42912122
   0.21073866  0.71978081  0.75825547
   0.18953584  0.63978552  0.90497633
   0.13489094  0.57366831  0.76716827
   0.49129334  0.46245697  0.38436973
   0.54402572  0.63927227  0.43534947
   0.46291008  0.54060416  0.32505815
   0.45496607  0.62257918  0.38397848
   0.68431787  0.41710533  0.65120878
   0.67677719  0.47029967  0.73636642
   0.65784356  0.42013272  0.81476147
   0.68260819  0.56439038  0.74847287
   0.76495934  0.44460242  0.59281623
   0.64037359  0.45973079  0.89857562
   0.66972734  0.60429262  0.83430525
   0.64232325  0.55219579  0.90746946
   0.34886328  0.11449755  0.12647005
   0.48457830  0.20686836  0.12279385
   0.50062938  0.05208125  0.16267532
   0.15172281  0.57033472  0.19211698
   0.28505014  0.62304264  0.11247957
   0.27051795  0.46747759  0.15198819
   0.42807603  0.90841873  0.80832310
   0.43148382  0.88423638  0.97418128
   0.57039841  0.88022207  0.88485968
   0.46413798  0.75881270  0.86308889
   0.55338167  0.75916631  0.63953048
   0.56644384  0.39867960  0.59368810
   0.86907315  0.63408261  0.69822291
   0.92053930  0.71232324  0.78173144
   0.95295346  0.71795711  0.66878224
   0.83035237  0.77258911  0.55220582
   0.71697448  0.78387297  0.60615551
   0.76185816  0.68372985  0.58426703
   0.72518058  0.84744209  0.74113496
   0.87288242  0.99549288  0.95066419
   0.76683033  0.94973538  0.92820343
   0.79170081  0.96982660  0.04382569
   0.83622403  0.14810399  0.86877883
   0.88696502  0.16027774  0.97432261
   0.79444104  0.23176214  0.94980402
   0.66243196  0.17942121  0.95333241
   0.30898193  0.37977496  0.59601083
   0.28215553  0.31383009  0.49938537
   0.19500576  0.35329893  0.56269130
   0.26466952  0.57066048  0.57437417
   0.15508427  0.52273060  0.55183939
   0.20486856  0.58778714  0.46668004
   0.26781912  0.50721255  0.35825289
   0.01168200  0.82605472  0.26095431
   0.11003336  0.81481173  0.20152041
   0.04806825  0.71625404  0.22626258
   0.98290356  0.79818112  0.98282134
   0.02286679  0.69888496  0.03646095
   0.09388527  0.79106741  0.03211556
   0.87937296  0.85497148  0.06804510
   0.91301731  0.35457301  0.03178347
   0.89489202  0.44667806  0.10845867
   0.00871928  0.41853514  0.06955627
   0.02805551  0.41525534  0.91618916
   0.96226717  0.48229543  0.83673479
   0.92343644  0.38253592  0.87256447
   0.90228986  0.58106652  0.89241804
   0.18903749  0.05017676  0.01751084
   0.12418194  0.96067343  0.06433415
   0.07092326  0.06376592  0.02966356
   0.98899898  0.03635552  0.88993086
   0.98057352  0.91890591  0.91204615
   0.03886885  0.95422947  0.81624546
   0.16886633  0.96368270  0.80027484
   0.12031401  0.15608704  0.69527095
   0.05766028  0.24862424  0.75052044
   0.09874691  0.26218716  0.64399327
   0.91170008  0.08675193  0.74171533
   0.98679230  0.03028772  0.67370689
   0.88841497  0.07934138  0.62740188
   0.89825519  0.18647940  0.54915471
   0.38310274  0.25776428  0.38435788
   0.34813711  0.19867755  0.29263151
   0.46274228  0.19339931  0.34073712
   0.35963312  0.07511093  0.53588052
   0.42106256  0.16879483  0.52422374
   0.47421588  0.06941861  0.49537982
   0.30677748  0.00482194  0.43898772
   0.52725526  0.73883991  0.10373634
   0.58264472  0.76724166  0.20227595
   0.54981437  0.65221591  0.18803552
   0.75530047  0.77579140  0.13538116
   0.69047027  0.78950612  0.04142538
   0.77039766  0.69864238  0.03806906
   0.75052867  0.58804470  0.10634006
   0.20276262  0.28804895  0.27521005
   0.10410592  0.29829465  0.34106792
   0.10503566  0.31995093  0.22338179
   0.14202161  0.11555896  0.37811134
   0.04163989  0.08077887  0.32221157
   0.04255533  0.18219184  0.38332627
   0.11983557  0.08048437  0.17440034
   0.03949375  0.79170711  0.61001837
   0.04776909  0.75256066  0.49712773
   0.95389734  0.81993238  0.54501499
   0.10303707  0.88518236  0.38463932
   0.12031794  0.98587538  0.42716972
   0.00145170  0.93488823  0.41531570
   0.17783172  0.98679992  0.56382434
   0.29935017  0.79708595  0.52391133
   0.40555349  0.85900826  0.53795110
   0.40202674  0.73913371  0.51790279
   0.49175491  0.81475973  0.37691732
   0.46010219  0.91945074  0.41207322
   0.43535859  0.88587527  0.29603397
   0.28131099  0.83165064  0.29685007
   0.69686474  0.27357117  0.19423645
   0.75080979  0.33637992  0.10904685
   0.71047458  0.39095433  0.20937543
   0.90021336  0.36259752  0.33857624
   0.81202444  0.29038259  0.37548156
   0.79016758  0.40733992  0.33362832
   0.95128546  0.26578959  0.24689882
   0.00789535  0.54321092  0.35980788
   0.95115046  0.56658501  0.45662538
   0.81863605  0.74389514  0.32130625
   0.90130177  0.74798972  0.40729665
   0.02174442  0.65022523  0.41819241
   0.81291754  0.67678732  0.42766482
   0.83476255  0.60476463  0.22362950
   0.67476419  0.99490611  0.54596350
   0.26609075  0.48358953  0.87481902
   0.68189006  0.18626216  0.33803283
   0.35911674  0.66936972  0.68048083
   0.62889468  0.34313932  0.35758555
   0.46426845  0.63754850  0.57445543
   0.62733411  0.48663304  0.36086989
   0.65060082  0.57047852  0.50537060
   0.73582457  0.19618623  0.69506186
   0.63576078  0.22993364  0.74567394
   0.69501388  0.14648141  0.80078433
   0.65131876  0.96040853  0.66752650
   0.74706673  0.00882411  0.71060487
   0.65864104  0.99728416  0.78056666
   0.48485724  0.13595983  0.68648782
   0.51054041  0.02587619  0.70013138
   0.53272916  0.09628175  0.78839600
   0.46857220  0.23512038  0.86169156
   0.51214379  0.33231256  0.82064578
   0.47023135  0.33558755  0.93230765
   0.28211499  0.25034257  0.90278639
   0.28727360  0.35890577  0.95196971
   0.22484374  0.33753452  0.85315590
   0.29176965  0.28953971  0.70697091
   0.40373113  0.26530512  0.70133161
   0.33009425  0.20055771  0.77611252
   0.63583235  0.89169497  0.39838444
   0.59757406  0.95369882  0.30316245
   0.70511909  0.89486755  0.29809981
   0.81422817  0.00991014  0.25961112
   0.70540831  0.05576590  0.23501563
   0.78315034  0.12300109  0.29406270
   0.83030428  0.01820126  0.46476757
   0.76117172  0.91551208  0.47293433
   0.84095962  0.93144086  0.38709984
   0.15493259  0.76216240  0.78716553
   0.26863518  0.76395535  0.76119251
   0.19379273  0.70997043  0.68710737
   0.18892331  0.71030169  0.92299559
   0.11767895  0.62315605  0.91896348
   0.23643921  0.60975435  0.95042681
   0.06991833  0.60558282  0.77348842
   0.13994016  0.54601132  0.69890929
   0.12459277  0.51996798  0.81562125
   0.43896228  0.45256940  0.43063797
   0.48541499  0.40589510  0.33683908
   0.59853559  0.65933608  0.39140928
   0.53626477  0.69261100  0.48817463
   0.39698835  0.52740092  0.29454092
   0.51396413  0.55106468  0.27182066
   0.44389349  0.67761155  0.33837792
   0.39761267  0.61325326  0.42655156
   0.68625612  0.34515246  0.66800731
   0.65929886  0.34735386  0.80665423
   0.69315846  0.61129870  0.69376504
   0.82219010  0.43863320  0.63966585
   0.76827609  0.51737321  0.57266591
   0.78193363  0.40391005  0.53543130
   0.60874464  0.41917121  0.95352177
   0.67829211  0.67707851  0.84115826
   0.62922386  0.58324060  0.97236722
   0.32839307  0.10436674  0.05779934
   0.31727888  0.17716673  0.14854902
   0.32526310  0.05430593  0.16779925
   0.54238445  0.20325573  0.07905562
   0.50650418  0.23691579  0.18925142
   0.43950396  0.25117161  0.09224355
   0.57416654  0.07222176  0.16468270
   0.10646266  0.60075095  0.14296812
   0.16182273  0.61573325  0.24810373
   0.11569818  0.50916896  0.21295876
   0.26462032  0.43189169  0.21759465
   0.33924614  0.47381374  0.13787375
   0.23590035  0.42290119  0.10453282
   0.35301441  0.59817971  0.08864657
   0.39380377  0.75031148  0.83855738
   0.46208328  0.72145720  0.92983061
   0.51600940  0.73139875  0.81599429
   0.35482198  0.88960860  0.81195873
   0.46092487  0.87838330  0.74714733
   0.43509426  0.98210524  0.81280774
   0.47708291  0.85622422  0.02600782
   0.35971312  0.85455269  0.97430584
   0.42877883  0.95802227  0.97700323
   0.60683341  0.86576476  0.81811978
   0.60677822  0.84167961  0.93252922
   0.58066127  0.95029253  0.90273222
   0.82226507  0.76220295  0.69437410
   0.75858536  0.08576920  0.96354202
   0.25349704  0.45245260  0.48702085
   0.99440845  0.80481129  0.12256008
   0.92497880  0.47751050  0.97218366
   0.11455916  0.97934331  0.92433287
   0.99091170  0.16919719  0.65148244
   0.37043941  0.11568237  0.40505719
   0.65981417  0.68058995  0.12234659
   0.10781788  0.18630470  0.26089393
   0.07605307  0.89027033  0.52150660
   0.36420528  0.82345728  0.40748217
   0.82611754  0.31549269  0.23176332
   0.90377998  0.62961480  0.34044158
   0.60836054  0.39486277  0.47409506
   0.53242218  0.52258235  0.56153209
   0.44565881  0.11999233  0.13365132
   0.23587204  0.55557416  0.14901020
   0.47161986  0.85848529  0.88248607
   0.82737093  0.82678506  0.83432739
   0.60455684  0.05953861  0.97503631
   0.28815038  0.37868489  0.35575011
   0.88668025  0.86702296  0.20563264
   0.89298052  0.62257593  0.02268256
   0.25991146  0.00460508  0.90034782
   0.97466061  0.29457738  0.56482912
   0.26694244  0.04467222  0.31336014
   0.63832183  0.52981246  0.16048043
   0.15364396  0.20394548  0.11930608
   0.12739184  0.91026326  0.66455197
   0.23269188  0.75297344  0.39595232
   0.90131113  0.23076030  0.12436341
   0.92806341  0.50693159  0.24976296
   0.57111852  0.27210499  0.60749871
   0.48336373  0.38865782  0.68657933
   0.47514268  0.97480792  0.16715569
   0.26680649  0.70312954  0.10958270
Direct configuration=   150
   0.89547474  0.68015198  0.70911334
   0.78096039  0.75841350  0.60927743
   0.80768578  0.81049425  0.75964103
   0.77794511  0.00255603  0.97424810
   0.83950801  0.15468108  0.93297295
   0.67593812  0.12352977  0.96080427
   0.27344781  0.39155118  0.55449043
   0.19918234  0.53448946  0.53124226
   0.25389638  0.44592597  0.39950343
   0.06539570  0.79829491  0.20607573
   0.01863711  0.77973169  0.05313835
   0.91134324  0.84728645  0.15285385
   0.91329710  0.44556097  0.04493809
   0.95867547  0.42692990  0.88513429
   0.90786511  0.57145879  0.94982336
   0.09795306  0.00025274  0.01937178
   0.02397530  0.96271082  0.87807935
   0.18437813  0.98197996  0.87189793
   0.06622549  0.20209457  0.69119812
   0.94527168  0.09808960  0.67667548
   0.94432678  0.23304808  0.58197704
   0.37018565  0.17594195  0.35988138
   0.40759208  0.09486938  0.49616506
   0.30367433  0.03442370  0.38494182
   0.58611651  0.69477010  0.15508982
   0.73211137  0.73901729  0.08020617
   0.68703191  0.57817843  0.11801839
   0.11594032  0.29147847  0.27452674
   0.07508518  0.13946420  0.32452546
   0.12632422  0.15954757  0.17547096
   0.04227577  0.81702868  0.55067541
   0.09959230  0.92180390  0.43828221
   0.14307664  0.93104098  0.59594396
   0.34983414  0.79881251  0.51627179
   0.42998625  0.85835279  0.38770323
   0.28882659  0.78448945  0.36366146
   0.76026783  0.32862284  0.18309860
   0.84199100  0.34686971  0.32607850
   0.90120762  0.26552238  0.20256560
   0.86859262  0.70418119  0.37151318
   0.97379887  0.58118753  0.41924428
   0.90243452  0.58434729  0.26851449
   0.63430494  0.12085508  0.58168809
   0.37179440  0.42949184  0.79524230
   0.60951926  0.21069509  0.55234068
   0.43535287  0.45678302  0.72363215
   0.64081702  0.23175504  0.46359238
   0.42287713  0.54242980  0.68059370
   0.68002774  0.07941916  0.42604935
   0.30179990  0.58279663  0.78596353
   0.63292817  0.09801403  0.67755918
   0.36559795  0.33053454  0.83279012
   0.66398802  0.05961543  0.51894367
   0.31315383  0.49899927  0.82126001
   0.66879131  0.16706583  0.40277991
   0.35644668  0.60631295  0.71521733
   0.71852228  0.00768814  0.36207174
   0.21436310  0.63368680  0.81221116
   0.62845660  0.31905397  0.43092226
   0.47540602  0.57211424  0.60620319
   0.58117547  0.46954398  0.41984142
   0.57910791  0.54911168  0.48185957
   0.67811195  0.17287487  0.73932343
   0.68278283  0.01225286  0.69525842
   0.53485852  0.09445730  0.71288791
   0.45089894  0.31067882  0.88300867
   0.29429365  0.32597782  0.90428319
   0.35552946  0.27160933  0.74891675
   0.64806218  0.94340003  0.33473455
   0.76245754  0.05405732  0.27846066
   0.79869058  0.96296207  0.40673882
   0.21045154  0.72743801  0.78456523
   0.20763100  0.63607860  0.91207366
   0.14332452  0.58476458  0.76125796
   0.49749769  0.45594150  0.36209132
   0.55029766  0.62920396  0.43577036
   0.47035610  0.54390091  0.31303282
   0.46718846  0.62483697  0.38002502
   0.68936074  0.41694718  0.65236538
   0.67344698  0.47539913  0.73181104
   0.64076501  0.43228266  0.80757668
   0.68055227  0.57067765  0.73992427
   0.76366394  0.45533894  0.59514806
   0.62742207  0.47425720  0.89083823
   0.66583483  0.61521935  0.82094098
   0.64458143  0.56654314  0.89644850
   0.35143881  0.10680711  0.11142347
   0.48113834  0.20956031  0.10769783
   0.49974430  0.05886291  0.15131892
   0.15970225  0.55639982  0.19627998
   0.28243753  0.61909031  0.11666993
   0.28582978  0.45933951  0.15718438
   0.41289206  0.89446463  0.80637999
   0.41971655  0.88208603  0.97390784
   0.55955889  0.88428094  0.87731845
   0.46156419  0.75470210  0.88120284
   0.54096390  0.77568336  0.62766074
   0.56207590  0.40342912  0.58768421
   0.86926669  0.61653694  0.72974322
   0.93283233  0.70725968  0.76493224
   0.94035844  0.67493747  0.65178104
   0.83168816  0.78702683  0.56489089
   0.71540918  0.78831528  0.60990187
   0.76140794  0.69117677  0.58097191
   0.75603082  0.85682755  0.73455053
   0.84418355  0.98359945  0.94780927
   0.72756068  0.95921775  0.94490568
   0.77779751  0.99349261  0.04499394
   0.87493634  0.12515824  0.87300430
   0.88732068  0.16934331  0.98725683
   0.81214302  0.21709830  0.91856354
   0.66373427  0.19663135  0.95923891
   0.32632600  0.41647880  0.60095298
   0.30591576  0.33339837  0.52058748
   0.21732012  0.36328961  0.58772076
   0.23585215  0.55351930  0.59131719
   0.12982628  0.51243393  0.54922069
   0.19481830  0.58765319  0.47913919
   0.22526909  0.49370083  0.35311033
   0.07457031  0.85380274  0.25502119
   0.12850297  0.79186198  0.16780451
   0.05195597  0.73945632  0.24687813
   0.95699479  0.79164597  0.01517532
   0.02964085  0.70456929  0.05854525
   0.07897580  0.81315374  0.02540633
   0.87450798  0.85451175  0.08933502
   0.85473405  0.40500640  0.04479523
   0.90154147  0.49981815  0.08863020
   0.97467524  0.40989910  0.06610635
   0.03163372  0.41478511  0.89836079
   0.94127406  0.46123876  0.82174510
   0.91942670  0.36282946  0.87965016
   0.91559638  0.60338193  0.87981244
   0.16477570  0.99291291  0.05462218
   0.04622651  0.95208346  0.04513489
   0.06981122  0.06761270  0.02620091
   0.97941120  0.02141104  0.86905420
   0.98821683  0.91503312  0.91384503
   0.03488894  0.93065382  0.81226832
   0.16530719  0.96752946  0.80273907
   0.11432493  0.14577566  0.69013182