unknown system                          
           1
    15.000000    0.000000    0.000000
     0.000000   15.000000    0.000000
     0.000000    0.000000   15.000000
   C    Cl   H    N    O 
  79   1 187  26  25
Direct configuration=    50
   0.05685852  0.78562753  0.29740006
   0.18507155  0.74891125  0.39352532
   0.21075750  0.80651752  0.24797984
   0.87315080  0.60332935  0.54330661
   0.79684966  0.74975675  0.52978559
   0.96107543  0.73713444  0.52052079
   0.27974787  0.32166117  0.76065352
   0.14923015  0.22174740  0.74931620
   0.22105534  0.27119040  0.89644645
   0.50459512  0.48166182  0.20673351
   0.46395468  0.32893061  0.15338383
   0.36352318  0.41097625  0.25849671
   0.05340284  0.83005997  0.00860804
   0.88879063  0.81222621  0.97109541
   0.95611265  0.95733956  0.98391406
   0.78336423  0.11756490  0.86431572
   0.79647991  0.19393705  0.01378588
   0.92447337  0.19204103  0.90029428
   0.78455696  0.25368134  0.59915190
   0.92644164  0.16599037  0.61200241
   0.78033567  0.09708534  0.63806343
   0.71099203  0.58720665  0.19592498
   0.86579430  0.64383547  0.19999896
   0.80140099  0.57831482  0.06284855
   0.89242837  0.91736776  0.24166669
   0.72811710  0.87998772  0.22670974
   0.79105640  0.01975373  0.17204864
   0.72305315  0.97395360  0.47850779
   0.74834202  0.09885900  0.37867902
   0.87321908  0.01864118  0.45038496
   0.76209656  0.73512072  0.79568625
   0.62565445  0.82866238  0.78175610
   0.62269626  0.67329144  0.73552759
   0.57855759  0.29129714  0.78486716
   0.50817362  0.13928248  0.82170078
   0.57084148  0.23752336  0.94177769
   0.40651573  0.26547076  0.40711304
   0.40371723  0.22353403  0.56184148
   0.54603443  0.25095825  0.48994154
   0.17592163  0.44034925  0.10471811
   0.19649545  0.59659435  0.04292848
   0.04962482  0.53376876  0.07734043
   0.12730121  0.17991558  0.34013980
   0.08427324  0.15903516  0.18167069
   0.22370497  0.09634735  0.24663613
   0.40014435  0.52578388  0.94739020
   0.56841640  0.52524736  0.93185977
   0.47208262  0.51723497  0.80561191
   0.53072136  0.98999917  0.03784169
   0.42294740  0.94783975  0.16428078
   0.51979838  0.08383357  0.16525573
   0.11051367  0.97093638  0.75821026
   0.05396377  0.89162664  0.62981656
   0.20353453  0.95751241  0.61640349
   0.20724738  0.55648855  0.77514017
   0.25795263  0.69205096  0.69997737
   0.12536136  0.70035204  0.79325146
   0.50031844  0.98772416  0.56680543
   0.41675558  0.92918163  0.43737562
   0.55460001  0.85716848  0.50233200
   0.31900718  0.92461070  0.81468504
   0.27296332  0.02926105  0.94117010
   0.26457142  0.87532293  0.96549948
   0.85571444  0.33590561  0.21394571
   0.71360132  0.26224078  0.21429545
   0.75268049  0.36438262  0.34296181
   0.93814733  0.46487132  0.88282499
   0.80386788  0.40424493  0.81908855
   0.92673611  0.43839866  0.71725193
   0.13339355  0.50615062  0.43226016
   0.00500601  0.39595788  0.43225231
   0.14078957  0.35073786  0.50536137
   0.48525727  0.74801505  0.93823848
   0.44448263  0.70603599  0.09709843
   0.59529995  0.75961720  0.05374846
   0.59882547  0.59355809  0.49847721
   0.47070715  0.51785181  0.43774141
   0.45459142  0.62320290  0.56436386
   0.52322404  0.47556418  0.58698211
   0.57388763  0.71983646  0.30978907
   0.04849442  0.78825695  0.22606163
   0.02835041  0.84649319  0.32891963
   0.02124498  0.72791789  0.33020453
   0.16318985  0.78608197  0.45575621
   0.25769999  0.75001347  0.39152106
   0.15610064  0.68044578  0.40580592
   0.27868854  0.77572877  0.26396588
   0.94218342  0.57799796  0.55026072
   0.83895320  0.56780162  0.48845388
   0.84394727  0.59337648  0.60858083
   0.75022086  0.74123541  0.46987317
   0.81488224  0.82250691  0.52561592
   0.75425921  0.72751632  0.58631880
   0.96138160  0.80948750  0.51151561
   0.32543619  0.27728172  0.72559977
   0.32038969  0.35677423  0.81183976
   0.24370294  0.36798253  0.71207881
   0.18662097  0.19982704  0.68910506
   0.09466352  0.26876051  0.71815042
   0.11908331  0.16465647  0.78707615
   0.16947209  0.22553799  0.92601248
   0.47714488  0.54679780  0.22399444
   0.54360154  0.49127158  0.14417930
   0.54920930  0.46566577  0.26164145
   0.40468758  0.29064828  0.13239270
   0.50857642  0.27873146  0.19196666
   0.50654528  0.35024654  0.09624539
   0.32535193  0.34903208  0.24913380
   0.09228759  0.87742398  0.04381828
   0.09101146  0.81996408  0.94341637
   0.04459065  0.76622050  0.04532326
   0.87411683  0.76381384  0.02374975
   0.90035358  0.77335259  0.90811728
   0.83036179  0.85203964  0.95124548
   0.88546736  0.97702814  0.97565293
   0.71556993  0.14002226  0.87973241
   0.78730546  0.04100797  0.86563155
   0.79930118  0.14814010  0.79962285
   0.75614242  0.25280903  0.00141102
   0.84186035  0.22321374  0.06604613
   0.75049631  0.14173221  0.03290671
   0.95200114  0.24289989  0.94422306
   0.72456608  0.25926620  0.64043953
   0.75564797  0.25909923  0.53164121
   0.83626406  0.30781255  0.60649936
   0.95330155  0.22175826  0.65211162
   0.94262852  0.17664763  0.53700047
   0.95910699  0.10712599  0.63775228
   0.82496056  0.03942008  0.65158790
   0.65443497  0.63357142  0.18106783
   0.71957850  0.58948582  0.26885091
   0.69491387  0.51832411  0.17252832
   0.85028483  0.70652824  0.23091559
   0.92453930  0.65274889  0.15498205
   0.88768378  0.59076759  0.24675011
   0.86796557  0.59614986  0.03076467
   0.94460343  0.91298890  0.19115354
   0.88900221  0.85494938  0.28150513
   0.91675212  0.97536288  0.28531551
   0.73079690  0.84220741  0.29170006
   0.71637166  0.83092008  0.17073799
   0.66289384  0.90946014  0.23242731
   0.72033363  0.03055115  0.15166764
   0.68853014  0.92807788  0.43111261
   0.66995086  0.01185863  0.51164554
   0.75612746  0.93058078  0.52287596
   0.69525473  0.12991626  0.41576805
   0.72225942  0.07228127  0.31301250
   0.79504154  0.15333240  0.36524570
   0.91877839  0.07312331  0.41902294
   0.76555045  0.76659934  0.86122355
   0.81271420  0.76916676  0.75087841
   0.78938851  0.66773292  0.80234041
   0.62860473  0.84508405  0.85504469
   0.55372624  0.82517863  0.76754333
   0.66007858  0.87981639  0.74067656
   0.54931086  0.69149722  0.73840431
   0.62713037  0.34033229  0.80992589
   0.51817227  0.32773595  0.76920626
   0.60842033  0.25658683  0.72538072
   0.55778071  0.09539982  0.78748502
   0.44996919  0.15365406  0.77935282
   0.48208205  0.09595714  0.87731861
   0.55793594  0.17591508  0.98511822
   0.34915512  0.30800189  0.41741086
   0.38886536  0.19841703  0.38058962
   0.45246518  0.29867007  0.35859407
   0.36331698  0.16571140  0.54074545
   0.35975505  0.27753264  0.58387436
   0.44545938  0.20615434  0.61912746
   0.57076976  0.23707776  0.55920677
   0.18699997  0.44797683  0.17684911
   0.24129561  0.42549533  0.06699980
   0.12992758  0.38649143  0.09440441
   0.24583865  0.62292248  0.09177743
   0.14993084  0.65549370  0.03102181
   0.22728744  0.57888977  0.98074230
   0.02119354  0.60268950  0.05379784
   0.18667138  0.16679638  0.38625764
   0.07044077  0.13966651  0.36701573
   0.10538460  0.25115325  0.34623095
   0.06976798  0.22962497  0.16211673
   0.02279720  0.12411206  0.20609772
   0.10090148  0.11651056  0.12626036
   0.23343405  0.06125961  0.17858762
   0.36995177  0.59260963  0.93353529
   0.41642875  0.51545955  0.01797499
   0.34646364  0.47810759  0.93407988
   0.58364881  0.48621754  0.99487849
   0.59112787  0.59298286  0.94881967
   0.61306563  0.50147896  0.87762709
   0.53447110  0.50813253  0.76805466
   0.47870042  0.97812528  0.98762371
   0.56975430  0.92872447  0.04102956
   0.57268188  0.04516889  0.01259314
   0.36477705  0.94359386  0.11766685
   0.39848012  0.97019246  0.23114441
   0.44523367  0.87899054  0.16516824
   0.49219472  0.09616482  0.23242737
   0.11180895  0.90963280  0.79610634
   0.04193380  0.99554752  0.76977020
   0.15673731  0.01831319  0.78875962
   0.07276798  0.87435877  0.56039536
   0.98969306  0.92291672  0.62855820
   0.04983380  0.82896648  0.67086087
   0.20347400  0.92483081  0.55146539
   0.26333153  0.54159464  0.81670081
   0.21912369  0.51901229  0.71239392
   0.14579453  0.52727485  0.80045967
   0.25619771  0.66576636  0.63078841
   0.32638918  0.68874862  0.72899140
   0.24110696  0.76006166  0.68618835
   0.13617366  0.77006224  0.77196917
   0.50546554  0.05155044  0.53125601
   0.56194619  0.97766314  0.60026754
   0.44030031  0.98329915  0.61333016
   0.42008481  0.99647022  0.40174191
   0.35290046  0.92662848  0.47207282
   0.41627738  0.88293167  0.38067308
   0.55013938  0.80663963  0.44554890
   0.30116967  0.97222696  0.76274972
   0.29017108  0.85895299  0.78914328
   0.39513567  0.92067391  0.82036520
   0.25324718  0.08106585  0.89416090
   0.33846421  0.04516196  0.96915610
   0.23034423  0.01883581  0.99804385
   0.22600654  0.90213648  0.02291759
   0.90262219  0.27966122  0.20776832
   0.89310923  0.39163252  0.24123480
   0.83113073  0.36009473  0.14975205
   0.65347578  0.24796508  0.25450460
   0.74529893  0.19877616  0.19874321
   0.70163680  0.29761747  0.15219002
   0.68729121  0.34124087  0.36521777
   0.01323916  0.46233556  0.88321478
   0.91022465  0.43184272  0.94318935
   0.91677391  0.53431868  0.89032897
   0.80877183  0.35045342  0.86502983
   0.76262901  0.37548016  0.75799587
   0.76417456  0.45736497  0.85549165
   0.87307010  0.41268894  0.66700631
   0.09545892  0.53055940  0.37467541
   0.20616950  0.50633070  0.41478396
   0.11368048  0.54269439  0.49206401
   0.00034367  0.39372847  0.35799748
   0.96027367  0.45193883  0.45611728
   0.99113903  0.32521369  0.45713501
   0.10051158  0.28924034  0.51854510
   0.51155723  0.69065921  0.90476809
   0.50780799  0.81006695  0.90641273
   0.41309989  0.74765740  0.93030267
   0.47680822  0.71849635  0.16472838
   0.44289527  0.63392117  0.08443038
   0.37835881  0.73837346  0.09091322
   0.60651750  0.74998786  0.12711975
   0.57327468  0.50293628  0.63476273
   0.54110735  0.41138127  0.55852646
   0.45908679  0.46194253  0.62319331
   0.58774638  0.64169855  0.44378632
   0.64883819  0.54010256  0.48324638
   0.62735109  0.62887543  0.55557375
   0.48218047  0.55883795  0.37657762
   0.40204952  0.50331111  0.45511520
   0.49488257  0.44835967  0.43733441
   0.39081330  0.58893599  0.57194554
   0.44938564  0.67689718  0.51392371
   0.47579620  0.64528893  0.63093501
   0.15143334  0.78401846  0.31134590
   0.87928749  0.69843060  0.52622343
   0.21422716  0.26901158  0.80750025
   0.43735890  0.41097625  0.20001035
   0.96530658  0.86802631  0.99575220
   0.84172530  0.16509668  0.92956802
   0.82970030  0.17117935  0.62152910
   0.79116254  0.61085414  0.14791945
   0.80347526  0.93940001  0.21410891
   0.78799773  0.02966224  0.43524770
   0.67184893  0.74192992  0.77032287
   0.55143323  0.22110139  0.85333763
   0.45376355  0.25228344  0.48927461
   0.13979256  0.52784905  0.07681630
   0.15056437  0.14766236  0.25521364
   0.48145305  0.51245260  0.89661292
   0.48780376  0.00762034  0.12709866
   0.12464491  0.95197401  0.66241625
   0.19234415  0.64971420  0.75509608
   0.49035885  0.92233947  0.49700242
   0.27746379  0.94361691  0.89912597
   0.77633376  0.31926099  0.26663917
   0.89501980  0.43655282  0.80239319
   0.09784167  0.40944618  0.45070528
   0.51188670  0.74201519  0.03181533
   0.51303930  0.55060802  0.52203250
   0.19191384  0.85240578  0.18160613
   0.02935071  0.69059051  0.51702153
   0.27870464  0.31352976  0.93987540
   0.33398601  0.47696775  0.30167463
   0.01898465  0.01310441  0.98379488
   0.95958321  0.15883856  0.83320974
   0.69770844  0.09526154  0.64531818
   0.74709366  0.53066702  0.02279773
   0.85288859  0.07148060  0.15736572
   0.91464942  0.95813959  0.49303261
   0.65468051  0.60039777  0.71258811
   0.60611200  0.30985229  0.96681336
   0.59182231  0.26428820  0.42342669
   0.00077490  0.47407519  0.10113488
   0.27629410  0.08462532  0.30719762
   0.39882153  0.53619282  0.76925774
   0.58567446  0.12741697  0.13582775
   0.27137354  0.99416816  0.64566231
   0.06090373  0.68204364  0.83745634
   0.61105944  0.85395670  0.56139703
   0.28713185  0.79572195  0.95460459
   0.79834779  0.41640222  0.38532682
   0.00345070  0.45816087  0.69566103
   0.21655621  0.34607675  0.53847714
   0.65139156  0.79029906  0.99795722
Direct configuration=   100
   0.06551610  0.80695302  0.29941483
   0.18622297  0.74235490  0.38346806
   0.21531538  0.82593643  0.24446869
   0.86245897  0.59118382  0.55364832
   0.80019188  0.74517261  0.52510107
   0.95552104  0.72149269  0.50590336
   0.29660954  0.30838302  0.75861428
   0.15745650  0.21510505  0.76585279
   0.21538399  0.27855455  0.90158136
   0.50059640  0.50289337  0.20363591
   0.48446334  0.34467296  0.14687769
   0.37008519  0.42362794  0.23554346
   0.04839816  0.81713073  0.00470431
   0.88826869  0.81821312  0.98236062
   0.97548463  0.95977481  0.98389942
   0.79684868  0.11771019  0.85150779
   0.80859698  0.18702729  0.00475838
   0.93360941  0.18330118  0.90299020
   0.78379383  0.24497917  0.58497219
   0.91976370  0.16043258  0.63343073
   0.76970161  0.09501413  0.64858994
   0.71597927  0.54928234  0.19964104
   0.85750587  0.64795667  0.20801713
   0.81135046  0.57440270  0.06885182
   0.89136418  0.92119678  0.24749519
   0.73265449  0.89128833  0.22383328
   0.80277602  0.02548126  0.16402841
   0.70797411  0.98914858  0.47444007
   0.75783163  0.11934602  0.37622032
   0.86650529  0.01525326  0.44652554
   0.75190502  0.71490285  0.81201524
   0.63581156  0.82769440  0.77061533
   0.62790136  0.67330686  0.71609189
   0.56930703  0.28042632  0.78237901
   0.49559302  0.13979144  0.82759540
   0.57089782  0.23439682  0.94186486
   0.40032904  0.25291781  0.38939377
   0.39608587  0.23463105  0.55502806
   0.53699391  0.24553900  0.48175788
   0.19125801  0.44769529  0.08777116
   0.19470700  0.59423052  0.02969528
   0.05101800  0.53397729  0.06578129
   0.12839097  0.19675173  0.34414832
   0.07486018  0.15001464  0.19736741
   0.21974709  0.09710052  0.24504734
   0.39834711  0.52308775  0.95340736
   0.56093168  0.49120005  0.93495187
   0.47516403  0.51419532  0.80495456
   0.51918548  0.98512836  0.04229214
   0.42542135  0.94647912  0.17288036
   0.51188864  0.08353276  0.17688958
   0.10881908  0.96833156  0.74906886
   0.04129968  0.88944329  0.62407293
   0.18591827  0.95672447  0.61002033
   0.19164141  0.58217693  0.79982414
   0.25529551  0.70027924  0.70092760
   0.11434940  0.71781028  0.79185802
   0.49079822  0.99712287  0.57807942
   0.43617129  0.92174887  0.44258920
   0.54353927  0.84212215  0.52436679
   0.33656737  0.92222983  0.83887499
   0.24946383  0.03480058  0.92471289
   0.26683729  0.87581596  0.97628514
   0.85911737  0.35173515  0.21215256
   0.70514701  0.26801876  0.22437483
   0.76406806  0.35980380  0.34258467
   0.95965375  0.46604051  0.87231461
   0.80468455  0.40919941  0.82513217
   0.92747613  0.42253428  0.72327015
   0.14894766  0.49293631  0.43645137
   0.00605493  0.40622029  0.40258481
   0.13506724  0.35078230  0.49493208
   0.47298110  0.76947131  0.94582159
   0.45100876  0.72772754  0.10857928
   0.60046177  0.76705778  0.04841959
   0.61618637  0.57950099  0.49796382
   0.47204830  0.51181812  0.44368062
   0.46695861  0.61673121  0.55313134
   0.52931022  0.47663290  0.59711252
   0.56206575  0.72455493  0.30640693
   0.04878624  0.84244160  0.23342567
   0.04313769  0.84911229  0.35324732
   0.02603899  0.74716933  0.30525665
   0.17429588  0.78220381  0.44139906
   0.25784018  0.71659207  0.37698689
   0.14437189  0.68482462  0.39655517
   0.28064338  0.82306251  0.27279077
   0.91820313  0.56450685  0.59374183
   0.85192489  0.54937469  0.49255285
   0.80595918  0.58799241  0.60314380
   0.75501567  0.72421486  0.47269318
   0.81872632  0.80966561  0.50456330
   0.76047816  0.74501462  0.58403342
   0.94714742  0.79145936  0.48073245
   0.34839975  0.25449448  0.75282203
   0.32896494  0.35649112  0.80024265
   0.26697461  0.33644473  0.70022641
   0.18389569  0.14916999  0.74742658
   0.14168385  0.24525181  0.70524342
   0.10323670  0.20153939  0.80958296
   0.15075257  0.24988248  0.91904188
   0.46309220  0.55514412  0.24080679
   0.51375245  0.53289663  0.13692313
   0.56447425  0.49499927  0.23951617
   0.43081699  0.31890351  0.10465184
   0.50165317  0.29183844  0.19072674
   0.54387444  0.35981248  0.11165318
   0.33883261  0.35632455  0.22285978
   0.09110174  0.86015306  0.04838173
   0.08568950  0.79614869  0.94824041
   0.02399853  0.75556146  0.03642965
   0.88000029  0.78634970  0.04778638
   0.88852766  0.76875850  0.92829715
   0.82854706  0.85511676  0.96465830
   0.90743728  0.98918104  0.97995863
   0.74079761  0.08387803  0.88180131
   0.84706764  0.07080770  0.83545720
   0.77172389  0.15942085  0.79699194
   0.76090613  0.24339841  0.01515399
   0.86135681  0.21297314  0.04448879
   0.78165851  0.12328931  0.02651349
   0.96943994  0.20288193  0.96748288
   0.71151714  0.24628871  0.59498909
   0.78616534  0.24648950  0.51176036
   0.82211225  0.30251840  0.60638825
   0.94647379  0.21102656  0.67770363
   0.95576521  0.15671895  0.57375616
   0.92980809  0.09492420  0.67025013
   0.80827150  0.03645073  0.67025652
   0.69303277  0.60112174  0.24292233
   0.73475965  0.49090148  0.23929459
   0.66470575  0.53126748  0.15193014
   0.81032928  0.69463136  0.24137810
   0.89908881  0.69027000  0.16547557
   0.89985062  0.61032004  0.25322597
   0.87427236  0.60410311  0.04684814
   0.94067751  0.89437038  0.20014595
   0.87948498  0.86438002  0.29131463
   0.92522596  0.97496434  0.27945979
   0.69031725  0.91808553  0.27629874
   0.74990889  0.82740224  0.24976528
   0.68595534  0.86934699  0.16890731
   0.73817852  0.03660097  0.12740668
   0.68142936  0.94691331  0.42060103
   0.65428378  0.03097007  0.50107194
   0.73671690  0.94316613  0.52650440
   0.72846019  0.18138284  0.40666147
   0.71039246  0.09516235  0.32898914
   0.82056160  0.13657186  0.34055441
   0.91267638  0.05631695  0.41151350
   0.75486548  0.74225920  0.87879290
   0.80874098  0.73820501  0.77329474
   0.75558124  0.63986304  0.81706427
   0.65235026  0.85322019  0.83622852
   0.56205514  0.82972960  0.76951424
   0.65757287  0.87002482  0.71551355
   0.57266322  0.69950277  0.67608457
   0.58906364  0.34388088  0.81068444
   0.51673527  0.28998492  0.72912620
   0.62639262  0.25075443  0.74827395
   0.52715754  0.09995160  0.77651088
   0.42740753  0.15569094  0.80154725
   0.49023044  0.09260963  0.88042823
   0.53340669  0.18646927  0.98175161
   0.35503172  0.31038926  0.40135180
   0.35614193  0.19705033  0.37650403
   0.44422294  0.27120964  0.33286848
   0.35850893  0.17106090  0.56309639
   0.33973556  0.28630656  0.55311473
   0.43934379  0.24142085  0.61204524
   0.56185656  0.23447838  0.55034028
   0.24290246  0.46962528  0.13617631
   0.21894966  0.41198281  0.03415507
   0.14647861  0.39507467  0.11790240
   0.23774984  0.60898775  0.08680193
   0.16281387  0.65749685  0.01851070
   0.23408086  0.57618132  0.97128755
   0.02938161  0.59508722  0.03524854
   0.17624245  0.18216672  0.39343655
   0.05973480  0.19422467  0.36911518
   0.13525909  0.26603212  0.32549142
   0.09063622  0.21397693  0.16457121
   0.00558893  0.15222348  0.22688872
   0.08694724  0.09391014  0.14480063
   0.22007932  0.06835504  0.17961047
   0.38106738  0.59282188  0.95664302
   0.41154140  0.48351680  0.01572642
   0.33689110  0.49482482  0.92406701
   0.56465396  0.42386179  0.96032388
   0.55966619  0.53138146  0.99655635
   0.61843462  0.51120952  0.90027012
   0.54604788  0.50303819  0.78178112
   0.46461070  0.96167244  0.99927617
   0.57093166  0.93211521  0.04739777
   0.54961350  0.03990183  0.00486870
   0.38539616  0.90416651  0.12976487
   0.38380636  0.98063957  0.21939233
   0.47047534  0.89519865  0.20603432
   0.46854769  0.08856635  0.23764660
   0.11222648  0.92168891  0.80918769
   0.04706593  0.00921594  0.75317528
   0.16125340  0.01940376  0.75666263
   0.02890079  0.91574947  0.55710799
   0.98707152  0.91307418  0.66870914
   0.04381466  0.81752292  0.62287673
   0.18005132  0.93224353  0.54039576
   0.26322476  0.55992649  0.80058528
   0.15622837  0.52919100  0.76342385
   0.16751873  0.57916254  0.86796766
   0.24780933  0.66753507  0.63458432
   0.32145839  0.67929516  0.72233733
   0.25654184  0.77389957  0.68868574
   0.10654415  0.78334822  0.75896494
   0.48636403  0.06219156  0.54259420
   0.55441948  0.99912314  0.62199237
   0.43526842  0.98513952  0.61928914
   0.43696571  0.97618776  0.39651517
   0.36420709  0.92153454  0.46302550
   0.45136567  0.86167296  0.40253537
   0.53235086  0.79739035  0.46828667
   0.30945182  0.96077397  0.78427984
   0.32977142  0.85569845  0.81562106
   0.40294562  0.94546103  0.84565320
   0.22369121  0.03930860  0.85324130
   0.30358175  0.08395326  0.93063370
   0.19602821  0.03471853  0.97423921
   0.24384825  0.90062173  0.04170584
   0.90217379  0.29268753  0.21745077
   0.89769206  0.40376863  0.24884009
   0.84910560  0.38086907  0.14463943
   0.65901015  0.26085743  0.27982977
   0.74073857  0.20188058  0.21208048
   0.67976689  0.29031159  0.15917902
   0.69884287  0.34201190  0.37606604
   0.00457277  0.41154576  0.88001920
   0.92566921  0.47860186  0.93487576
   0.99890769  0.52552265  0.84887975
   0.79287743  0.34469718  0.86693479
   0.77771900  0.39771278  0.76462287
   0.76652615  0.46176362  0.85660272
   0.87775578  0.40471840  0.67320960
   0.12978373  0.51931842  0.36948417
   0.21550838  0.47340207  0.42884781
   0.13830209  0.54587506  0.48846771
   0.01196923  0.41286830  0.33040261
   0.96896316  0.45860066  0.43215262
   0.98406693  0.34179579  0.41841427
   0.09609499  0.29005247  0.51071368
   0.52272265  0.74206891  0.89711358
   0.46787081  0.84183752  0.92589600
   0.40602456  0.73770903  0.94259118
   0.48574548  0.73135660  0.17065435
   0.42460473  0.66078972  0.09443220
   0.39525008  0.77734432  0.10336542
   0.61413809  0.75292922  0.11963184
   0.55404396  0.50675462  0.65964110
   0.56597725  0.42009088  0.56928845
   0.46352809  0.45121047  0.60158862
   0.60844945  0.63397497  0.44845263
   0.64798745  0.52721461  0.46255713
   0.65879877  0.59633273  0.55695527
   0.46528281  0.57376033  0.40888952
   0.40460182  0.48328067  0.46576875
   0.50307287  0.46343354  0.40196215
   0.40432648  0.58327314  0.57659974
   0.45858569  0.66936677  0.50536611
   0.50085602  0.64577267  0.61193701
   0.15745007  0.78701321  0.30054736
   0.87718515  0.68609240  0.53328722
   0.22510284  0.27029958  0.81062425
   0.45356286  0.42330140  0.19684236
   0.96990450  0.86866121  0.98538462
   0.84625500  0.16732224  0.91826850
   0.82330088  0.16334528  0.61607498
   0.79741774  0.58656532  0.15688748
   0.81083925  0.94198032  0.19842390
   0.78064027  0.04650632  0.43779884
   0.67225124  0.73638534  0.76423262
   0.54622211  0.21856438  0.85494141
   0.44978383  0.24103662  0.47375634
   0.13706929  0.52049855  0.05580981
   0.14297507  0.14072879  0.26891165
   0.47433229  0.50849606  0.89575914
   0.48064115  0.00983075  0.12885412
   0.12024448  0.92401140  0.66507984
   0.18757699  0.67387573  0.76735519
   0.49704509  0.92069583  0.51706838
   0.28999176  0.94424473  0.91893353
   0.77385018  0.33270914  0.25831311
   0.89578649  0.43437596  0.80966316
   0.09138323  0.41410108  0.44943229
   0.51200956  0.75747111  0.03804350
   0.52371436  0.54252141  0.52580654
   0.18980565  0.85802512  0.17385806
   0.03034421  0.68774232  0.51484670
   0.26435612  0.31572214  0.95899995
   0.33665461  0.48047284  0.28754115
   0.04060945  0.00786992  0.99664072
   0.97084980  0.18086725  0.82774556
   0.68592186  0.09829778  0.64587434
   0.76269179  0.53412515  0.01569897
   0.86073778  0.08408895  0.17556773
   0.89338414  0.95120387  0.48702835
   0.65980183  0.59456739  0.71033390
   0.62146154  0.29284662  0.96839138
   0.58791175  0.26146233  0.41601008
   0.99428148  0.48313120  0.10028683
   0.28590536  0.08835647  0.29477725
   0.40971352  0.52577903  0.75567275
   0.56256077  0.14595509  0.15549182
   0.24798483  0.00677118  0.63312332
   0.05891311  0.68734930  0.84849355
   0.59974574  0.81826202  0.58360051
   0.28105134  0.79589654  0.95306171
   0.81934104  0.40687572  0.38628499
   0.00634200  0.44205939  0.70671716
   0.21121012  0.35693885  0.52735923
   0.65324330  0.78583533  0.98835777
Direct configuration=   150
   0.07693081  0.81772150  0.30253787
   0.20880545  0.74153744  0.37127058
   0.22401914  0.82096620  0.23140797
   0.86718417  0.59185392  0.57128074
   0.79021111  0.72479670  0.51293518
   0.95179554  0.70727761  0.50483365
   0.31434044  0.30419225  0.78234537
   0.17265402  0.21425656  0.75230597
   0.21543865  0.28087899  0.90521249
   0.50775593  0.51926728  0.20833057
   0.49715497  0.36612347  0.13876987
   0.37140259  0.42838481  0.22381616
   0.04720252  0.81345221  0.02566162
   0.88432113  0.83545199  0.98398317
   0.98832970  0.96270969  0.99355641
   0.80292711  0.13328089  0.84928988
   0.81237354  0.18829620  0.00225085
   0.94065531  0.19316801  0.89957844
   0.78876820  0.24066805  0.57254872
   0.90917503  0.14507187  0.63124731
   0.75317979  0.09991511  0.64964056
   0.73158323  0.53002112  0.19249309
   0.85112061  0.63373785  0.22499902
   0.81974616  0.58190946  0.06677931
   0.88915341  0.91316800  0.24042000
   0.73463665  0.89758689  0.19542948
   0.80317821  0.04325676  0.18618099
   0.69253287  0.00291009  0.45073786
   0.76094494  0.13349940  0.37078993
   0.85592527  0.01732062  0.44215431
   0.75802109  0.69917542  0.83210174
   0.66567154  0.82158163  0.77751754
   0.63760310  0.67415647  0.72149862
   0.57104313  0.26610267  0.78651883
   0.48167288  0.13710329  0.83434258
   0.57248816  0.22450626  0.93632015
   0.39556202  0.24223157  0.37807572
   0.38158943  0.23224959  0.54264858
   0.53014803  0.24162787  0.47566414
   0.17790895  0.45336634  0.09461052
   0.19117036  0.61277738  0.03103077
   0.04815551  0.54017044  0.06317037
   0.15008094  0.20173531  0.33789038
   0.06269162  0.13712929  0.20714928
   0.21166358  0.08406392  0.24746846
   0.39600348  0.49897073  0.93721649
   0.55763816  0.48232004  0.95109951
   0.48689685  0.51128504  0.80468854
   0.51544561  0.99866581  0.06398765
   0.41996176  0.94313660  0.19040306
   0.49194888  0.09279401  0.18670664
   0.09981987  0.96844859  0.74502446
   0.03573923  0.87186776  0.62278752
   0.16698591  0.95880978  0.60110867
   0.18203503  0.57576937  0.79640500
   0.23300089  0.71322530  0.70335981
   0.10845859  0.72698306  0.79913714
   0.49211727  0.96978007  0.59690385
   0.44302391  0.92907258  0.43729341
   0.53956721  0.83145786  0.53044676
   0.35443368  0.93580483  0.85103046
   0.25953502  0.03709945  0.93724428
   0.24809951  0.87922881  0.97076947
   0.85295718  0.35953808  0.20040269
   0.70920438  0.28413714  0.21011112
   0.77352859  0.36413962  0.34723130
   0.96253190  0.45858250  0.88322625
   0.81639539  0.42122102  0.83409982
   0.93463542  0.41640064  0.72503142
   0.15704143  0.50474730  0.41888596
   0.02039874  0.42105204  0.39645307
   0.13396133  0.35905842  0.49853917
   0.48692877  0.77509814  0.94614954
   0.44869754  0.73706026  0.10372900
   0.60178293  0.76184704  0.05251275
   0.61494302  0.56086486  0.48199080
   0.48190067  0.48924048  0.43176771
   0.47583453  0.61168002  0.54598539
   0.53792172  0.46077026  0.58086091
   0.55121824  0.73173507  0.31566459
   0.06185546  0.87678175  0.26217392
   0.04638214  0.83331097  0.36918948
   0.03834445  0.76151020  0.26960693
   0.20620991  0.78148373  0.43629075
   0.27500621  0.72218315  0.35390555
   0.17605771  0.67704388  0.38291251
   0.28506444  0.77606528  0.22921352
   0.93091084  0.56010341  0.57927557
   0.82589084  0.55037981  0.52846384
   0.83069095  0.59207220  0.63440750
   0.74157130  0.69418571  0.46465977
   0.80374238  0.79545699  0.48619752
   0.75492789  0.73811193  0.58107426
   0.94859184  0.77989938  0.48010553
   0.35841504  0.24946511  0.76649155
   0.33959989  0.34536898  0.83844594
   0.29380721  0.34777032  0.72515310
   0.20292299  0.14972339  0.73137542
   0.15877620  0.25695847  0.69051832
   0.10921215  0.19208134  0.78648093
   0.15174784  0.25065115  0.93219740
   0.46313759  0.57011149  0.23514448
   0.53592142  0.55120390  0.15105213
   0.56702129  0.50565311  0.25145430
   0.45162440  0.32678165  0.09331576
   0.53601021  0.32296658  0.18668470
   0.55004264  0.39653354  0.09377211
   0.34158409  0.36530984  0.19944175
   0.08864618  0.84973279  0.07726131
   0.07997343  0.79131335  0.96462869
   0.02179346  0.74923443  0.04777717
   0.84285545  0.82678034  0.04568943
   0.88358640  0.77414184  0.94593489
   0.84158055  0.88090309  0.94226881
   0.93860509  0.00655564  0.95692995
   0.78945828  0.05956875  0.85990894
   0.84191920  0.14842293  0.78930092
   0.73857936  0.16780549  0.85815696
   0.77647398  0.24998580  0.99118105
   0.85961415  0.20564685  0.05636072
   0.76564544  0.13253485  0.01677074
   0.96642918  0.22926451  0.95795975
   0.72865899  0.22439171  0.53334019
   0.84396068  0.26586663  0.52722015
   0.76918988  0.29657298  0.61676455
   0.93979348  0.19813411  0.67331607
   0.93973435  0.15967156  0.56214424
   0.92881828  0.08053347  0.65862200
   0.78904862  0.04002716  0.67953164
   0.70078195  0.55811338  0.25509267
   0.75113096  0.46024367  0.20172497
   0.68058278  0.52894556  0.14039098
   0.80937291  0.68225856  0.26122803
   0.90123954  0.67304215  0.18932938
   0.88456538  0.58695323  0.27337232
   0.86632396  0.63444356  0.04301121
   0.91158891  0.86516610  0.18548692
   0.88381828  0.86883017  0.29835054
   0.94299794  0.96071365  0.25182460
   0.67194761  0.93172653  0.17868783
   0.70463208  0.85460784  0.25179137
   0.75327683  0.86053627  0.13631959
   0.73273189  0.06190064  0.17329354
   0.66769596  0.95686122  0.39870243
   0.64519656  0.05488329  0.46663227