unknown system                          
           1
    15.000000    0.000000    0.000000
     0.000000   15.000000    0.000000
     0.000000    0.000000   15.000000
   C    Cl   H    N    O 
  80   1 188  25  24
Direct configuration=    50
   0.37467616  0.81608254  0.02109363
   0.46148099  0.85265448  0.88944989
   0.30971509  0.79346903  0.87045294
   0.10355542  0.89593855  0.68411375
   0.97919950  0.83772457  0.77666283
   0.03519650  0.75435274  0.65343792
   0.40599580  0.36196858  0.61127892
   0.45185714  0.21516864  0.68232824
   0.43032833  0.34534166  0.77197313
   0.30855641  0.48737812  0.12633328
   0.25775773  0.33000931  0.14385463
   0.37110628  0.39762851  0.24213855
   0.85079905  0.92951408  0.97470345
   0.73542659  0.80916386  0.96824528
   0.77612434  0.87911494  0.10864753
   0.68663077  0.29981087  0.72385285
   0.64692757  0.46279408  0.71511634
   0.76540513  0.39985242  0.81577851
   0.89729035  0.02071157  0.38600936
   0.90030514  0.86657037  0.45368514
   0.03182039  0.96130024  0.46240012
   0.23445210  0.57097645  0.87686564
   0.20918123  0.46378825  0.75733885
   0.14133965  0.43680595  0.90053857
   0.59705469  0.24037403  0.94513137
   0.65604498  0.08492713  0.92369149
   0.69595154  0.16170584  0.05453618
   0.12375890  0.63497014  0.15596721
   0.97883371  0.68830617  0.21001014
   0.00940537  0.69802649  0.05325865
   0.67198793  0.92589403  0.74722195
   0.63725293  0.91871903  0.58703495
   0.54769832  0.00909741  0.68339076
   0.68938772  0.17907552  0.50443258
   0.77508260  0.31308785  0.44989635
   0.61687627  0.31156638  0.44208156
   0.05029035  0.29193147  0.47803505
   0.15496758  0.24982457  0.35495853
   0.20666807  0.29943373  0.50507055
   0.28530819  0.65594015  0.63632416
   0.44418100  0.64987211  0.68908989
   0.38789008  0.79525998  0.64463222
   0.90189844  0.18823690  0.20040136
   0.92820682  0.19405875  0.04145870
   0.01269818  0.29318681  0.13679695
   0.25774390  0.04537540  0.88580134
   0.17709670  0.15308015  0.98742807
   0.31179024  0.19444961  0.91155517
   0.15428277  0.87329544  0.13783689
   0.17568629  0.99135919  0.26445316
   0.07999689  0.01961331  0.13547621
   0.44077350  0.06611913  0.42747191
   0.30070902  0.03847324  0.49400329
   0.37636870  0.90867691  0.42249426
   0.41809793  0.04852302  0.07457022
   0.54922793  0.03262940  0.18944862
   0.46622166  0.17189026  0.17199966
   0.98412531  0.15269185  0.83243085
   0.09318790  0.16055584  0.70902074
   0.94889826  0.07112629  0.69500378
   0.83984231  0.43886675  0.16466096
   0.88837433  0.46399763  0.01001739
   0.81325473  0.58660819  0.09258824
   0.95755328  0.43141857  0.71047941
   0.90219606  0.57834487  0.78359941
   0.84178525  0.52151193  0.64190161
   0.13285922  0.50636558  0.33332988
   0.04211614  0.54242233  0.47013190
   0.13758357  0.65593917  0.39772524
   0.56361671  0.57975409  0.94147783
   0.54352895  0.45398272  0.03539811
   0.53543796  0.59863060  0.10637872
   0.69917577  0.74854025  0.33522451
   0.54735538  0.68516174  0.35201198
   0.66173035  0.67236216  0.48438214
   0.67907209  0.58243496  0.34033819
   0.77237292  0.55014700  0.36821679
   0.67156069  0.84548079  0.36628908
   0.48185386  0.62725896  0.39456367
   0.75013923  0.69870999  0.52349838
   0.69392241  0.69277838  0.74335375
   0.33790081  0.87552828  0.04456182
   0.44199888  0.80430779  0.05109539
   0.33650028  0.76209218  0.04129642
   0.48049547  0.82113564  0.82404214
   0.52172456  0.83822591  0.93334698
   0.46178255  0.92687090  0.87907808
   0.33571528  0.79752037  0.80217801
   0.12988980  0.91407687  0.75224754
   0.07793768  0.96115311  0.65344926
   0.15487084  0.86614469  0.64622467
   0.92868217  0.78716910  0.77400331
   0.94650192  0.90633725  0.78870282
   0.01548526  0.82898361  0.83978199
   0.98415702  0.70688615  0.68094790
   0.38718966  0.42793586  0.63455042
   0.34665869  0.33276308  0.57688196
   0.46169951  0.37631227  0.56307559
   0.39861739  0.17836217  0.71132261
   0.51778228  0.20078996  0.71747740
   0.46308737  0.19660101  0.61342830
   0.44934359  0.28981778  0.81987583
   0.31197519  0.54164590  0.17869164
   0.25133268  0.49258800  0.08003019
   0.36546191  0.49426631  0.08012487
   0.27399906  0.31175539  0.07173813
   0.18895719  0.35003372  0.14198489
   0.26269009  0.27723101  0.19295281
   0.36516562  0.33489249  0.27780417
   0.83318142  0.96032996  0.91185308
   0.91618775  0.89209983  0.97117783
   0.86183506  0.98482704  0.01650344
   0.70072278  0.84822930  0.91638746
   0.68981792  0.77872123  0.01274510
   0.78087997  0.75977457  0.93520120
   0.72317985  0.82945933  0.12910052
   0.61658601  0.28248447  0.70315452
   0.70712108  0.24864960  0.77161146
   0.72862348  0.29485672  0.66500986
   0.57573251  0.44271272  0.71138130
   0.66565352  0.47989389  0.64648656
   0.65155202  0.52563828  0.75328738
   0.77573683  0.47092920  0.84043074
   0.85130495  0.05945122  0.42821437
   0.85033665  0.99508628  0.33096944
   0.94665127  0.06432546  0.35180834
   0.95025204  0.81331279  0.46427786
   0.86112979  0.84253673  0.39676670
   0.85576876  0.87070374  0.51191044
   0.06173385  0.89346369  0.47843168
   0.19682181  0.58847331  0.93790856
   0.23970948  0.62068525  0.82832654
   0.30480988  0.54936774  0.89397524
   0.15865377  0.48201910  0.71008913
   0.21365563  0.39113044  0.76065784
   0.27252796  0.49196900  0.73153409
   0.13058530  0.37344274  0.86201943
   0.54493231  0.21833455  0.89896476
   0.64352506  0.28623129  0.90781167
   0.56771212  0.27080301  0.00546528
   0.62388100  0.10308007  0.86136627
   0.62441916  0.02731531  0.95737554
   0.72298639  0.06678484  0.90687274
   0.73346186  0.10017707  0.06836816
   0.15077229  0.67424311  0.21080212
   0.17148006  0.64355762  0.09814005
   0.11354238  0.56439908  0.17178756
   0.00373792  0.73353468  0.26104154
   0.96439651  0.62300176  0.23821257
   0.91260431  0.70729236  0.18657196
   0.93894436  0.72504974  0.05602639
   0.72623496  0.97666788  0.75206081
   0.70001606  0.86111261  0.72931772
   0.63666294  0.92619621  0.81340916
   0.58622016  0.95422571  0.54272888
   0.62704742  0.84850876  0.58761714
   0.70501239  0.94092904  0.56470426
   0.52154044  0.03061560  0.61121335
   0.74445724  0.17476471  0.54963497
   0.69105137  0.12371185  0.45358951
   0.62469278  0.16437248  0.53585038
   0.81676567  0.30069122  0.38849854
   0.81595290  0.30007758  0.51163273
   0.75728802  0.38297335  0.44805159
   0.63310220  0.38477591  0.43680126
   0.01083577  0.22509790  0.47726904
   0.02020733  0.34189535  0.43846811
   0.05845283  0.32377724  0.54601592
   0.10424001  0.20146586  0.33230875
   0.22436109  0.23048079  0.34905582
   0.15016558  0.30735324  0.30773528
   0.27751692  0.28602543  0.47957874
   0.25911780  0.67904314  0.57247012
   0.23399008  0.65595237  0.68627607
   0.30622590  0.58509009  0.62819277
   0.50386486  0.68890252  0.69730939
   0.45887600  0.60310230  0.63362643
   0.43452773  0.61709679  0.75291934
   0.45987085  0.80737712  0.64334450
   0.92041084  0.23446482  0.25651938
   0.90847635  0.11305271  0.21109062
   0.82943411  0.19916342  0.18292836
   0.91453061  0.12292649  0.03833835
   0.97219172  0.21578296  0.98328658
   0.86764605  0.23196139  0.02546800
   0.04330843  0.30395942  0.07218969
   0.30638786  0.00028728  0.92647832
   0.28895038  0.05940566  0.82124348
   0.19216298  0.01466090  0.87809553
   0.18761237  0.22227441  0.00367384
   0.17908556  0.11205557  0.05032815
   0.10844656  0.14207499  0.95855521
   0.29175307  0.26347838  0.93442278
   0.09801737  0.86052451  0.09130749
   0.15375381  0.83007347  0.19608033
   0.21770448  0.86514683  0.10237464
   0.24535169  0.01006085  0.26565092
   0.16375525  0.93853670  0.31510165
   0.13756708  0.05029025  0.28175362
   0.07079215  0.07953759  0.18033850
   0.40450218  0.13178762  0.41550568
   0.48607363  0.05011509  0.37267523
   0.48733202  0.08029131  0.48092247
   0.30144354  0.10913979  0.47649098
   0.30218894  0.02890723  0.56662810
   0.23846825  0.01348300  0.47205847
   0.31143730  0.87656413  0.43467358
   0.43282404  0.09086318  0.01319780
   0.34447210  0.05663971  0.08674853
   0.43525127  0.97784911  0.07088663
   0.53127257  0.00418063  0.25763061
   0.60972986  0.07421994  0.19619713
   0.55918726  0.97595818  0.14417383
   0.51282609  0.19222144  0.22679480
   0.94033273  0.09449791  0.85774122
   0.94071529  0.21243608  0.82446222
   0.04439742  0.16004485  0.87659280
   0.10567010  0.12411813  0.64655892
   0.14694365  0.14423067  0.75834765
   0.08707001  0.23342216  0.69674746
   0.96764921  0.07131351  0.62160049
   0.90705168  0.42420106  0.19193194
   0.79576834  0.37724550  0.14977804
   0.79978991  0.47153482  0.21804798
   0.91041845  0.51364755  0.96175348
   0.84272123  0.41489356  0.97877256
   0.95034097  0.43162666  0.02916895
   0.82847064  0.62556221  0.03136236
   0.02235486  0.45177986  0.73348259
   0.95339336  0.40655478  0.64084091
   0.93409481  0.37864229  0.76112077
   0.89132600  0.54941684  0.85155634
   0.85537668  0.63209211  0.76740520
   0.97064157  0.60012358  0.79177026
   0.79579676  0.57757665  0.64638261
   0.17283059  0.45097548  0.36121815
   0.18708514  0.53801409  0.29397462
   0.08498365  0.47938467  0.28720550
   0.01054451  0.59613080  0.51316369
   0.08450682  0.48711240  0.51087716
   0.98156235  0.50203718  0.44837963
   0.11175004  0.69766170  0.45177330
   0.53475688  0.64548851  0.92885217
   0.52870869  0.53318466  0.89542842
   0.63614653  0.57868765  0.93426103
   0.51506090  0.42298425  0.97322919
   0.50005180  0.43014533  0.09010948
   0.61437557  0.42742574  0.04101591
   0.51490719  0.55428550  0.16584965
   0.68245520  0.59279860  0.27029077
   0.62463451  0.53377488  0.35955161
   0.76604290  0.74772246  0.36223478
   0.70190734  0.73813035  0.26277831
   0.55233430  0.68059190  0.27811063
   0.52632202  0.75259849  0.36943200
   0.64690149  0.60184064  0.50861955
   0.60385794  0.70672521  0.51307441
   0.43237785  0.61568275  0.34281073
   0.45588766  0.64908773  0.45692015
   0.50240030  0.55664987  0.39788270
   0.62262676  0.84317736  0.42511525
   0.63571936  0.87914392  0.31087631
   0.72860400  0.88772741  0.39143772
   0.77294593  0.48161755  0.33920617
   0.78894190  0.54987342  0.43925373
   0.82067958  0.58774137  0.32556002
   0.80787933  0.66095973  0.50661833
   0.73653211  0.69451809  0.59864070
   0.76054635  0.77138916  0.51186574
   0.38378939  0.81045086  0.92491242
   0.03363474  0.83097981  0.69956374
   0.43680793  0.31219038  0.68620107
   0.31551696  0.40511629  0.17213749
   0.78691495  0.87609855  0.01952036
   0.69736857  0.39093873  0.75637431
   0.94545900  0.94982928  0.43188028
   0.19027808  0.49277764  0.84746900
   0.64859580  0.16718845  0.97943278
   0.03767000  0.67721441  0.13638108
   0.61428128  0.95486369  0.67578639
   0.69369378  0.26425943  0.46007867
   0.14174397  0.27444832  0.44679736
   0.36903841  0.70690108  0.66533917
   0.95917052  0.21879834  0.13029740
   0.24952494  0.13270456  0.92964479
   0.14268256  0.96385554  0.17613620
   0.37563231  0.99517540  0.44973537
   0.47725626  0.08330666  0.14685076
   0.01310686  0.11685759  0.74583195
   0.84335209  0.50165109  0.08622170
   0.89363154  0.50734802  0.71334685
   0.10221923  0.57263047  0.39693306
   0.54019846  0.54926513  0.03130897
   0.64858451  0.67321591  0.38148827
   0.23227210  0.77951493  0.89058330
   0.08891067  0.73383485  0.59329885
   0.40731736  0.42316251  0.78625682
   0.41968038  0.45862702  0.26472078
   0.80982452  0.93376772  0.16348739
   0.80565433  0.33272810  0.84611142
   0.07570779  0.02942749  0.46522024
   0.11821786  0.44391410  0.98119297
   0.70685092  0.22534310  0.11062396
   0.05036931  0.69134187  0.98322134
   0.52086162  0.04048218  0.75570992
   0.53957802  0.28165203  0.44426299
   0.19674618  0.32563825  0.58281700
   0.33198832  0.85535620  0.63365322
   0.02934411  0.34077082  0.20091195
   0.37752509  0.17675507  0.86621858
   0.03674063  0.01102942  0.06612244
   0.43959848  0.86887141  0.38128034
   0.41408953  0.22365331  0.13800553
   0.87616714  0.04101946  0.72456765
   0.77476263  0.62675790  0.15612134
   0.84304435  0.46956713  0.57850347
   0.19308273  0.67751835  0.34161074
   0.54710880  0.68077497  0.11088938
Direct configuration=   100
   0.38034045  0.78912920  0.01021231
   0.46988586  0.84168767  0.87986939
   0.30699968  0.81181878  0.87266169
   0.11533468  0.89126987  0.68432547
   0.99176708  0.82686125  0.77387991
   0.04268195  0.74949674  0.63955582
   0.39420222  0.35731848  0.60761640
   0.45634727  0.22805874  0.68204361
   0.43979204  0.36673216  0.76530577
   0.31777065  0.48110783  0.11371553
   0.25688143  0.33558973  0.15482968
   0.37668910  0.39808113  0.24745766
   0.85358290  0.93293226  0.97143757
   0.73281369  0.81521442  0.95543889
   0.76653684  0.89074584  0.10323825
   0.69179521  0.29796999  0.70604783
   0.65833979  0.46338389  0.72912354
   0.76188194  0.38687719  0.82348894
   0.89601109  0.01996441  0.38615039
   0.89910761  0.86326431  0.44858281
   0.02747818  0.96614515  0.46688738
   0.22261568  0.56541393  0.87921919
   0.19588030  0.44563641  0.75645658
   0.13701963  0.43386565  0.91311230
   0.59619567  0.23774715  0.96494965
   0.68529114  0.10267118  0.91668893
   0.70402090  0.17516436  0.06350040
   0.10687793  0.62330177  0.14860092
   0.96958298  0.69796740  0.21738663
   0.99973150  0.70027278  0.05899619
   0.66233580  0.95529317  0.76658613
   0.66070631  0.92045118  0.61239964
   0.53033164  0.99607672  0.67908643
   0.68486028  0.17806347  0.49843659
   0.78431245  0.30586839  0.47445507
   0.62600121  0.29974763  0.41753756
   0.04000691  0.28422973  0.46149349
   0.16772557  0.23284247  0.37000649
   0.19554927  0.30499708  0.51499665
   0.29525532  0.67142127  0.64217557
   0.44717454  0.64117387  0.70421371
   0.39352894  0.78815042  0.65317230
   0.90347304  0.19880799  0.20031961
   0.92461376  0.19485752  0.02909522
   0.99796474  0.30359654  0.12679907
   0.24948099  0.03820046  0.90479466
   0.18057855  0.14638790  0.00912531
   0.30252488  0.19680922  0.91901030
   0.16416543  0.88562205  0.13382474
   0.19390474  0.97638714  0.26173560
   0.06770727  0.01414433  0.14985371
   0.46000281  0.05168683  0.43930491
   0.30278411  0.01454101  0.50352321
   0.39739392  0.90905757  0.42455913
   0.42615446  0.04307771  0.09649868
   0.56837461  0.02827747  0.17985230
   0.48856327  0.17426292  0.16708441
   0.97625897  0.15247814  0.82620547
   0.08504079  0.17378060  0.69213042
   0.94865895  0.08144849  0.68510536
   0.80765681  0.42639082  0.14997945
   0.91003943  0.46331262  0.02143315
   0.79850671  0.56997106  0.07830855
   0.96175584  0.42086684  0.70839919
   0.91319343  0.56426837  0.77637769
   0.84769158  0.52024792  0.63566679
   0.13593120  0.49654861  0.35036193
   0.03881861  0.54773983  0.47375966
   0.14963254  0.65109288  0.41105834
   0.56083742  0.59240123  0.95197774
   0.52456129  0.45956241  0.04660647
   0.52417695  0.60888245  0.10897050
   0.69827087  0.75193967  0.33443179
   0.55104124  0.69379452  0.33732579
   0.63603973  0.68647215  0.47831286
   0.67782560  0.58773763  0.34502193
   0.76932984  0.55887128  0.37932600
   0.66469060  0.84845582  0.34601119
   0.47261700  0.63634132  0.37238268
   0.72749851  0.69878494  0.52197973
   0.69487766  0.67768235  0.74709865
   0.35991919  0.84993788  0.04597194
   0.44698362  0.76595820  0.03180337
   0.32328206  0.73960832  0.02757768
   0.47066181  0.84171748  0.80831111
   0.52502320  0.80377304  0.90903560
   0.48472575  0.90961076  0.89909340
   0.31688029  0.83267771  0.80062040
   0.14013053  0.90711982  0.75079872
   0.07936212  0.94625804  0.66004554
   0.17426556  0.86994059  0.64067197
   0.92407984  0.79144909  0.76056137
   0.97730159  0.89332270  0.78026793
   0.02047589  0.81000602  0.83936520
   0.98433685  0.70571374  0.65514446
   0.41547182  0.42541923  0.59374855
   0.32181212  0.35338257  0.61151201
   0.41584754  0.32132106  0.54793588
   0.39760163  0.18880607  0.65289614
   0.47709863  0.19809394  0.74313859
   0.51267435  0.22524935  0.63406184
   0.47146802  0.32478679  0.81463865
   0.35727457  0.53720605  0.13805950
   0.25028208  0.50603548  0.10756417
   0.34084294  0.45841826  0.04707777
   0.26620342  0.31484280  0.08923742
   0.18492985  0.36039452  0.15181708
   0.26230723  0.28494160  0.20890748
   0.36672402  0.33295719  0.28396374
   0.83271114  0.95646106  0.90391464
   0.91582864  0.89534092  0.96497262
   0.87084755  0.99720618  0.00689708
   0.70219618  0.84678365  0.89627905
   0.68415659  0.77782605  0.99807019
   0.77969145  0.76417046  0.92896639
   0.71517266  0.84600164  0.12532148
   0.65166761  0.30775124  0.64794177
   0.64622833  0.25784546  0.74734894
   0.75382525  0.26137029  0.68570946
   0.59499922  0.47467265  0.76380933
   0.64514221  0.46009712  0.65688514
   0.70032808  0.52240841  0.73571653
   0.75471201  0.45254570  0.85166797
   0.82337189  0.01195443  0.39898053
   0.90360605  0.02420484  0.31588445
   0.91634499  0.08603071  0.41226517
   0.93450354  0.81695188  0.49127687
   0.88544454  0.82722929  0.38396324
   0.83472017  0.88000788  0.48163621
   0.05256331  0.91331776  0.51071863
   0.17621986  0.59474046  0.92714920
   0.22825453  0.60012753  0.81096923
   0.29095206  0.55870589  0.90108666
   0.21835094  0.50716062  0.71968559
   0.13681786  0.41866223  0.72514385
   0.25227807  0.39845585  0.75603829
   0.09154117  0.38189670  0.88370428
   0.54511252  0.21002383  0.91853717
   0.63216901  0.29367940  0.93178139
   0.56846779  0.25946422  0.02857665
   0.62522441  0.08348625  0.87790956
   0.70912922  0.04641922  0.95499683
   0.73450554  0.13309476  0.86667854
   0.74399775  0.11344929  0.08049957
   0.14299159  0.64126967  0.21001630
   0.14724808  0.64486934  0.09343064
   0.09068626  0.55182298  0.14775428
   0.01257671  0.74735482  0.25335344
   0.94802850  0.64443625  0.26489470
   0.90895365  0.73280166  0.18942893
   0.93510944  0.74217299  0.05505915
   0.72602326  0.99177885  0.77494737
   0.67486356  0.88238437  0.77032840
   0.61673042  0.97978606  0.81545523
   0.62615391  0.93229838  0.55202818
   0.66355308  0.84633626  0.63170356
   0.72586184  0.95226235  0.60967514
   0.50073451  0.98567637  0.61384542
   0.75256339  0.15138816  0.51861638
   0.64772344  0.13308361  0.45488411
   0.64558482  0.17613425  0.56045462
   0.83187007  0.25457093  0.45592874
   0.79163101  0.32587275  0.54621175
   0.78868009  0.36473750  0.43207286
   0.64610094  0.35165777  0.37286221
   0.01678857  0.21858902  0.46811370
   0.01365049  0.31245860  0.39628782
   0.02213986  0.32859174  0.51421226
   0.17181337  0.16176488  0.38860784
   0.22644977  0.26703796  0.33839298
   0.11374629  0.23799317  0.32456643
   0.26670216  0.29993348  0.49165860
   0.26726966  0.70794691  0.58478826
   0.25283878  0.68631488  0.70234213
   0.29399422  0.60019762  0.62553872
   0.51604295  0.67045706  0.71750281
   0.45459605  0.57891908  0.66700454
   0.41618043  0.62983438  0.77085859
   0.46276919  0.81285692  0.68196904
   0.95035599  0.21606479  0.25151889
   0.89519065  0.12936458  0.18374112
   0.83657111  0.22527910  0.21884713
   0.97779397  0.14396302  0.02135547
   0.92681626  0.24507918  0.97998097
   0.85966627  0.16192744  0.01334922
   0.02845487  0.33224916  0.06271943
   0.26798923  0.99769196  0.95718078
   0.29930770  0.03505490  0.85280838
   0.18426602  0.02154626  0.87618964
   0.15070920  0.21308789  0.00173562
   0.21382895  0.13999603  0.07370959
   0.12648794  0.09901918  0.00224380
   0.29112417  0.25480828  0.96474635
   0.11235478  0.87391950  0.08312251
   0.18600634  0.82688829  0.17587106
   0.22332310  0.90809201  0.09550020
   0.25624747  0.00857899  0.23519109
   0.21783362  0.91280805  0.28799117
   0.17002878  0.01933054  0.31856129
   0.05479274  0.07627873  0.18933713
   0.44387391  0.11073889  0.40455795
   0.51108676  0.01257187  0.40583078
   0.49182858  0.07148880  0.50549975
   0.25281712  0.05311733  0.46411634
   0.32501758  0.04701990  0.56473386
   0.26936907  0.94965940  0.52743269
   0.34593113  0.86420551  0.45190798
   0.43346692  0.05149677  0.02599129
   0.36408734  0.07648764  0.11136449
   0.42105982  0.97826627  0.12552813
   0.53888789  0.96502801  0.19621482
   0.59357824  0.05969338  0.24047717
   0.62115996  0.00709248  0.13379472
   0.54528754  0.21054189  0.20284781
   0.93396827  0.10130722  0.84673525
   0.94260939  0.21612987  0.82371104
   0.04005154  0.15958114  0.86068724
   0.08990417  0.15291272  0.62171768
   0.13764344  0.15300910  0.73364388
   0.07445604  0.24605151  0.69561924
   0.98540932  0.06663024  0.62412557
   0.86368743  0.42236959  0.19737709
   0.79574731  0.36502818  0.12067894
   0.74879225  0.44381440  0.18902472
   0.90669916  0.50838072  0.96339805
   0.91222975  0.39604985  0.99212076
   0.97600928  0.48333182  0.05042454
   0.81090262  0.60368678  0.01302815
   0.00859818  0.43452020  0.76327181
   0.99813472  0.40738307  0.64516243
   0.92140005  0.36271411  0.71938236
   0.90802653  0.52591248  0.83757836
   0.85507997  0.60783802  0.76991317
   0.97675103  0.60422999  0.78137450
   0.80937189  0.58352193  0.64274008
   0.14957313  0.43470386  0.38553511
   0.19642249  0.50852141  0.30681931
   0.07896159  0.47861256  0.30589769
   0.03585124  0.59897619  0.52375055
   0.03861930  0.48579896  0.49985726
   0.97591130  0.55736920  0.43832616
   0.11851311  0.69033382  0.46655434
   0.57740036  0.66526765  0.96041253
   0.50785442  0.58551496  0.90343753
   0.61908990  0.55341939  0.92773208
   0.46760815  0.43448078  0.01173035
   0.50784362  0.44224708  0.11612897
   0.58645844  0.42865949  0.02782267
   0.50615549  0.57637535  0.16777264
   0.69109868  0.59686547  0.27156981
   0.62276406  0.54070618  0.35294900
   0.76817948  0.75091454  0.35710876
   0.68787368  0.73847777  0.26389142
   0.56392686  0.68271662  0.26718758
   0.52992820  0.76466589  0.34673048
   0.60041118  0.63456775  0.51174696
   0.59202861  0.74550994  0.48714718
   0.40573746  0.66446542  0.35469361
   0.47398834  0.62754789  0.44836309
   0.47743363  0.56546229  0.34905783
   0.67231164  0.87244138  0.41503109
   0.59548233  0.86002611  0.33187725
   0.70565863  0.88948642  0.30564308
   0.79778368  0.52319166  0.32381853
   0.76778634  0.51870230  0.43946557
   0.80971818  0.61812299  0.39180781
   0.76464069  0.63700298  0.52032436
   0.71747731  0.70840034  0.59226884
   0.76597989  0.75221150  0.49307285
   0.38387281  0.81641142  0.91683123
   0.05028089  0.81752925  0.69662681
   0.43110782  0.32188684  0.68870931
   0.32511409  0.40654187  0.17390244
   0.78145982  0.88110413  0.01349891
   0.70594778  0.38088567  0.75055102
   0.94486686  0.94825926  0.43144951
   0.18285760  0.47858652  0.84935042
   0.65691770  0.16760304  0.98484766
   0.01691823  0.66801282  0.13946471
   0.61329480  0.96628837  0.68058960
   0.69670970  0.26301471  0.46065784
   0.13831769  0.28673372  0.44962726
   0.38621971  0.69956781  0.65501229
   0.93335031  0.24011972  0.11719257
   0.24299537  0.13274446  0.93509419
   0.13011998  0.95908843  0.18877270
   0.38201124  0.99437885  0.45082962
   0.49928711  0.08609332  0.14493260
   0.99906873  0.13848840  0.73287084
   0.83371689  0.48658934  0.07569521
   0.90965069  0.50393322  0.69999017
   0.11381023  0.56760643  0.41031841
   0.52948490  0.55547536  0.03701453
   0.64010703  0.67721201  0.37772129
   0.23335248  0.78515338  0.90621669
   0.08805015  0.74386456  0.57078179
   0.40890300  0.44394474  0.78024928
   0.43015563  0.45620482  0.27327286
   0.81127749  0.93789136  0.15136948
   0.81703075  0.33204452  0.85181332
   0.06805782  0.04007710  0.45649089
   0.13508330  0.45776361  0.99305480
   0.69272645  0.23652526  0.11228849
   0.05064886  0.68821633  0.99489972
   0.49342568  0.03235264  0.74152763
   0.55181222  0.26387932  0.42604373
   0.18321988  0.33710889  0.58998740
   0.33479451  0.83720995  0.62269408
   0.02223236  0.33521137  0.20205555
   0.36582416  0.19298245  0.86672994
   0.03124053  0.00163410  0.07401088
   0.46532119  0.88591871  0.38703451
   0.42199624  0.21920337  0.14148399
   0.87786407  0.04289840  0.70582948
   0.75722130  0.60740215  0.13831902
   0.83321520  0.47262419  0.56962505
   0.20721157  0.68308848  0.36191719
   0.54251990  0.68987103  0.10455034
Direct configuration=   150
   0.38959654  0.76797979  0.01027985
   0.46334493  0.84448099  0.87377828
   0.30538209  0.82387743  0.87307656
   0.13833364  0.87507858  0.70189603
   0.00208024  0.81669180  0.78144145
   0.03710685  0.76239578  0.63445842
   0.39826866  0.37889283  0.61231390
   0.45942108  0.23668928  0.68293315
   0.44060743  0.37952202  0.76471742
   0.31848792  0.48725073  0.12251448
   0.25517270  0.33533943  0.16809835
   0.38020458  0.40093523  0.24739545
   0.86098097  0.92675530  0.96290181
   0.73550901  0.81425270  0.96004830
   0.76336517  0.89515237  0.09555004
   0.71000777  0.29798984  0.70758502
   0.64803701  0.44568428  0.73424898
   0.77165200  0.38040038  0.82965933
   0.89405808  0.01638705  0.38290979
   0.91181015  0.86227640  0.43791408
   0.02657038  0.97718753  0.46362678
   0.21767811  0.56677497  0.87349127
   0.18513273  0.42962900  0.77323676
   0.13814793  0.42474479  0.92613063
   0.58572411  0.23875501  0.96250797
   0.70201922  0.13091031  0.92497754
   0.70030179  0.18925137  0.07415710
   0.08323836  0.60787561  0.15678356
   0.96456285  0.69660929  0.21955004
   0.99194433  0.71002897  0.05866855
   0.65207650  0.96884001  0.78138091
   0.66799767  0.92677386  0.61923027
   0.52926081  0.98277785  0.67067263
   0.68920564  0.15809892  0.50650231
   0.78428535  0.29135057  0.46603125
   0.63316934  0.28629108  0.41402442
   0.03266577  0.27876814  0.45337589
   0.18052208  0.21948103  0.37901820
   0.17776029  0.31034294  0.51605405
   0.30223071  0.65631928  0.63870294
   0.44877387  0.64571380  0.71099790
   0.40843480  0.77969568  0.63747521
   0.89223147  0.19317759  0.19149711
   0.92962552  0.20935927  0.02440098
   0.00111042  0.30622972  0.13530683
   0.25803887  0.04593089  0.91694075
   0.18248598  0.14221472  0.03117152
   0.28961860  0.20236885  0.92142406
   0.17222208  0.88053438  0.11671547
   0.19028179  0.97417813  0.26751679
   0.06485801  0.99350437  0.16881575
   0.45319488  0.06924922  0.44875113
   0.31174523  0.99930001  0.50828937
   0.41628562  0.91017866  0.43000809
   0.43835386  0.03036698  0.10530930
   0.58822667  0.03382686  0.17299487
   0.50092941  0.16844342  0.16971771
   0.96805533  0.16176853  0.80800175
   0.07366535  0.19093161  0.68160187
   0.94063867  0.08858597  0.66319734
   0.78174725  0.41612022  0.12620268
   0.90820088  0.46913948  0.02884045
   0.79182368  0.56796853  0.07686478
   0.95548478  0.41652526  0.68560245
   0.93359847  0.55533946  0.77385694
   0.85808016  0.52320831  0.63317541
   0.15073036  0.49498052  0.36221319
   0.03999378  0.55204794  0.46757115
   0.16172738  0.64777599  0.41036507
   0.55792760  0.59514340  0.95110006
   0.52013505  0.46775957  0.05149236
   0.53283039  0.61458404  0.11300868
   0.70082103  0.75029785  0.31194749
   0.53228895  0.69596834  0.32971541
   0.62178709  0.70561264  0.46391174
   0.66317129  0.59505842  0.34265006
   0.75668486  0.56849690  0.36555278
   0.69350210  0.85274747  0.32878191
   0.46643283  0.62981766  0.36384796
   0.69622015  0.70880380  0.52669454
   0.69621304  0.68032100  0.76019369
   0.40097171  0.81759811  0.06467694
   0.44447297  0.72543978  0.01191047
   0.32808737  0.73260430  0.01821346
   0.43989598  0.90622327  0.83918979
   0.49591098  0.79659316  0.82756988
   0.51816688  0.86498603  0.92288557
   0.32200994  0.85542868  0.81020047
   0.17743809  0.87052298  0.76306359
   0.11178370  0.94496346  0.68423478
   0.18018458  0.85177829  0.64504577
   0.96246265  0.75923699  0.78350335
   0.95006292  0.87863889  0.78177913
   0.04384829  0.81784932  0.84123377
   0.98489764  0.71263651  0.64964645
   0.44258092  0.43532066  0.58778460
   0.33159352  0.40522314  0.63090650
   0.38659662  0.33579347  0.55522665
   0.41176462  0.20238356  0.64096119
   0.44745029  0.20813579  0.74784559
   0.52782960  0.21877969  0.66057818
   0.46826034  0.33791144  0.82203500
   0.37880732  0.52476127  0.13459247
   0.26744131  0.53734561  0.14456523
   0.31683843  0.46323941  0.05331129
   0.25628556  0.32868678  0.09136354
   0.18745273  0.34880537  0.18526115
   0.28351041  0.27794309  0.20263384
   0.37355412  0.33768952  0.28587802
   0.84342177  0.96399222  0.90318299
   0.91083640  0.87712161  0.94381292
   0.89849023  0.97457835  0.00634503
   0.68688395  0.83739987  0.91183126
   0.70126479  0.76604224  0.00604866
   0.77930680  0.77130460  0.92142002
   0.70325608  0.85487159  0.12106103
   0.73826399  0.31126995  0.64045074
   0.64127945  0.27359483  0.69483000
   0.75367532  0.24810411  0.73755757
   0.58138403  0.42191150  0.75170424
   0.64943531  0.45090460  0.66034043
   0.65947134  0.51299044  0.76241147
   0.77492285  0.44807020  0.86397186
   0.82483516  0.99215690  0.36593973
   0.93286805  0.02224011  0.31787744
   0.88295916  0.08266375  0.41081473
   0.95580863  0.82360403  0.48298005
   0.91130763  0.83468526  0.37178280
   0.84393767  0.85781699  0.46889889
   0.06056407  0.91625722  0.49030386
   0.18672989  0.59551499  0.93126361
   0.20835380  0.60623115  0.81301272
   0.29110677  0.55501980  0.88118244
   0.23980157  0.46186811  0.73491705
   0.12391209  0.43640508  0.73198915
   0.19744445  0.35988243  0.78548063
   0.12970193  0.35496293  0.90456709
   0.53830430  0.19141736  0.93412257
   0.60547908  0.29309245  0.91712762
   0.55649698  0.27587895  0.01833486
   0.66423908  0.06882115  0.91661584
   0.77133217  0.11166924  0.93850288
   0.69627757  0.17052644  0.86601337
   0.75826079  0.14577431  0.08258529
   0.11858864  0.62580613  0.22017306