unknown system                          
           1
    15.000000    0.000000    0.000000
     0.000000   15.000000    0.000000
     0.000000    0.000000   15.000000
   C    Cl   H    Li   N    O 
  78   1 182   1  26  26
Direct configuration=    50
   0.27932548  0.86491270  0.00975593
   0.13307867  0.79334974  0.96046246
   0.22310187  0.86887541  0.85096916
   0.74011043  0.76409584  0.66345809
   0.58165002  0.72870949  0.66954414
   0.62655607  0.88468450  0.64071300
   0.33057579  0.44561780  0.78355482
   0.41532969  0.47347068  0.64234270
   0.25957964  0.43855984  0.63338749
   0.41690589  0.60169164  0.03878453
   0.30206849  0.61161629  0.14649575
   0.44088962  0.68688267  0.18469948
   0.50166197  0.34953380  0.13967796
   0.45097954  0.19376650  0.09179508
   0.36485527  0.32356274  0.06425852
   0.56917138  0.52127227  0.86932511
   0.68870431  0.56285175  0.96900070
   0.72101785  0.53846883  0.81247989
   0.90383471  0.11926159  0.52396442
   0.89237074  0.98505579  0.60985479
   0.03960658  0.05144277  0.57627789
   0.01506199  0.69427084  0.17470541
   0.97262818  0.53675225  0.12196742
   0.08223735  0.56266279  0.23859958
   0.51098698  0.24920359  0.55436394
   0.51238715  0.30218614  0.39712627
   0.55409311  0.14834806  0.43717299
   0.83783085  0.30711533  0.01443335
   0.81944486  0.14526589  0.05182659
   0.69508902  0.23072587  0.99423396
   0.28621731  0.84189115  0.59170495
   0.25040548  0.69101590  0.66882521
   0.13396615  0.79571598  0.63327610
   0.71778803  0.15884454  0.67223899
   0.60775712  0.17258737  0.79985118
   0.66031479  0.30590534  0.72476906
   0.23788996  0.36390558  0.35414980
   0.16544938  0.25379678  0.45106182
   0.08994924  0.30835291  0.32009039
   0.01891745  0.50467633  0.83666157
   0.15073247  0.46698508  0.93573327
   0.14053068  0.60821648  0.84960879
   0.78530382  0.15958972  0.33016108
   0.82624032  0.31620043  0.33809782
   0.70741427  0.26314217  0.23789299
   0.53084723  0.81934116  0.01474928
   0.51386794  0.95585084  0.91983930
   0.46760055  0.80424439  0.86771130
   0.32429217  0.20656556  0.69564593
   0.26056751  0.05606748  0.67626895
   0.24210534  0.14483635  0.81679245
   0.30675885  0.12873731  0.27970363
   0.35148025  0.97171763  0.26982913
   0.34985835  0.04845465  0.41243832
   0.75966329  0.83095314  0.91428127
   0.86419080  0.92511093  0.84609492
   0.90269009  0.76641531  0.86913595
   0.47196658  0.68384038  0.41852477
   0.41521634  0.53453797  0.36835948
   0.31289694  0.66681623  0.38154864
   0.88562978  0.31221494  0.75107754
   0.04012623  0.24431184  0.72758823
   0.91599791  0.15421448  0.78518396
   0.72195828  0.66247060  0.19037151
   0.71565667  0.65645082  0.35887431
   0.67602446  0.52787683  0.25837851
   0.91641096  0.61743025  0.60412804
   0.03483407  0.58522178  0.48793954
   0.91234618  0.48522549  0.51626051
   0.00105296  0.98945496  0.34478267
   0.12201151  0.89284747  0.39820041
   0.97333561  0.82835608  0.38673504
   0.61069784  0.98967203  0.20313215
   0.68690139  0.92699676  0.34042420
   0.75353357  0.92155523  0.18532111
   0.16379332  0.14944321  0.07470749
   0.05998577  0.11464001  0.95092896
   0.08865354  0.00368408  0.06813336
   0.61224568  0.48220237  0.49715487
   0.32806773  0.90400981  0.97591850
   0.29841028  0.79723570  0.02870299
   0.24905819  0.90380847  0.06638437
   0.10234145  0.78436559  0.89602100
   0.08558857  0.82453226  0.01175860
   0.15313247  0.73117729  0.98796461
   0.17400325  0.83814960  0.80491142
   0.74508991  0.73316989  0.72878935
   0.79205861  0.81069938  0.64442744
   0.75435187  0.70703516  0.61655113
   0.60090725  0.70749940  0.73553257
   0.57774808  0.67434173  0.61844826
   0.51649549  0.76189150  0.67004002
   0.54981756  0.88695229  0.65230544
   0.26168166  0.44371006  0.80639235
   0.36561871  0.50179384  0.81791160
   0.36036442  0.38097396  0.80274371
   0.41904070  0.44593259  0.57557729
   0.47350914  0.44144979  0.67010716
   0.43279289  0.54616658  0.63972551
   0.28496594  0.46095132  0.56863976
   0.38622812  0.64686448  0.98945573
   0.40827423  0.53187901  0.03127120
   0.48788682  0.61090265  0.03614593
   0.28081093  0.64963295  0.20678380
   0.28915024  0.53787032  0.14930203
   0.26583420  0.63396728  0.08519501
   0.39505234  0.70780666  0.24540519
   0.47303431  0.41325430  0.12690627
   0.56177946  0.33710864  0.09569637
   0.52569919  0.34586757  0.20684386
   0.49510140  0.18859066  0.03439550
   0.39361061  0.15261255  0.08020910
   0.47852875  0.15894931  0.15108099
   0.32938734  0.27036239  0.02578640
   0.55223112  0.51398541  0.79952527
   0.52691371  0.57762193  0.88529786
   0.55610930  0.46174556  0.90967631
   0.65275855  0.52601285  0.02075108
   0.68171911  0.63660901  0.97879385
   0.75879039  0.55286467  0.98287124
   0.79014119  0.54623274  0.83858197
   0.94835265  0.16205974  0.48307212
   0.86832145  0.16553943  0.57479328
   0.85030728  0.08714522  0.48722050
   0.85472650  0.01102946  0.66734933
   0.93098980  0.92810180  0.63593343
   0.84507679  0.95954721  0.56059032
   0.06138172  0.99075553  0.60860910
   0.05136260  0.72584691  0.22801612
   0.94570704  0.71333259  0.18658871
   0.03689437  0.71877139  0.10963091
   0.98830304  0.46889542  0.14733718
   0.99736381  0.53815278  0.05325646
   0.90109277  0.54630274  0.12320565
   0.06992039  0.48905444  0.25572511
   0.55906846  0.28873249  0.58901796
   0.49419629  0.18789438  0.59325775
   0.44910380  0.28834740  0.55512687
   0.50205371  0.26832365  0.33217365
   0.56296440  0.35266600  0.40325557
   0.44463719  0.33318651  0.41316008
   0.56256315  0.14412189  0.36403828
   0.79328702  0.36434788  0.00153132
   0.88105522  0.30850528  0.95341907
   0.87620606  0.32055715  0.07445636
   0.76629609  0.09804504  0.06559379
   0.85873306  0.16207951  0.11608109
   0.86180739  0.10703868  0.00320131
   0.66187614  0.16634182  0.00890297
   0.32075757  0.88361044  0.64200765
   0.24436830  0.87928038  0.54421831
   0.32876109  0.80054878  0.54884343
   0.27191607  0.64451958  0.61663771
   0.18916755  0.65657636  0.69844102
   0.29890662  0.69558375  0.72190441
   0.09138534  0.73860163  0.65200757
   0.67396457  0.11732289  0.62602787
   0.75944681  0.11471973  0.71449337
   0.76298994  0.20006205  0.63217403
   0.55894541  0.21375011  0.83496288
   0.65458306  0.14752883  0.85344044
   0.56727610  0.11550584  0.77090590
   0.62690315  0.34382837  0.77814881
   0.30018250  0.32934057  0.33410097
   0.25387001  0.39454653  0.41946846
   0.21712788  0.42178258  0.31034072
   0.12000707  0.19828224  0.44814084
   0.15710874  0.29385314  0.51317115
   0.23197241  0.22056980  0.45740035
   0.03364016  0.26735237  0.34273687
   0.01151283  0.51053915  0.76427551
   0.97563496  0.55436914  0.86365208
   0.01092956  0.43524050  0.85418533
   0.14159981  0.39877633  0.91159935
   0.11956475  0.47384261  0.00110553
   0.22548197  0.47272155  0.94711785
   0.20733249  0.62800904  0.87926814
   0.75734212  0.16118716  0.39829194
   0.86000325  0.13826021  0.33543864
   0.74231132  0.11677397  0.28474001
   0.87445215  0.28829271  0.38528814
   0.78996883  0.36037847  0.38588632
   0.86318149  0.35774140  0.28344979
   0.69340076  0.33502450  0.22547915
   0.50252825  0.75706151  0.02703884
   0.51630400  0.86452110  0.07491048
   0.60874552  0.81382725  0.00914111
   0.58195166  0.97566310  0.92995804
   0.47925852  0.99488760  0.97344588
   0.48708462  0.97109014  0.85428545
   0.45746269  0.83987080  0.80221828
   0.39588549  0.19592916  0.69894940
   0.31802037  0.27083740  0.72869546
   0.29901756  0.21195048  0.62812741
   0.32609066  0.02493951  0.66538778
   0.24019206  0.07603074  0.60965792
   0.21892241  0.00501457  0.70692578
   0.19822732  0.08744236  0.83701336
   0.23587367  0.12747069  0.26858943
   0.32767650  0.13791783  0.21152400
   0.32311795  0.18220573  0.32219698
   0.39601879  0.92570256  0.30927287
   0.37942002  0.98257044  0.20287281
   0.29010200  0.93069137  0.25927448
   0.38028936  0.98379844  0.43641249
   0.76234430  0.86432414  0.97930598
   0.74040195  0.76033060  0.92187025
   0.71196132  0.87209992  0.87388278
   0.93506527  0.93321482  0.82891629
   0.85081025  0.97732191  0.89779295
   0.81253217  0.94055047  0.79405575
   0.97654558  0.79011339  0.85008749
   0.51553790  0.63957792  0.45333876
   0.45207032  0.74663690  0.45289026
   0.51673222  0.70044743  0.35698622
   0.35788551  0.49399868  0.35716399
   0.45615373  0.50835480  0.42334029
   0.45087515  0.53460531  0.30518177
   0.25821399  0.62389708  0.36352834
   0.87432803  0.33864444  0.68005815
   0.91559564  0.36046419  0.79743735
   0.82211559  0.29404753  0.78146259
   0.07131107  0.17647395  0.71498317
   0.07125757  0.27380666  0.79026847
   0.05347212  0.28940715  0.66976187
   0.96373799  0.09929697  0.77831153
   0.65870518  0.69594684  0.17458606
   0.75212955  0.61068296  0.14649393
   0.77073229  0.71733355  0.20740496
   0.78619830  0.67094004  0.36385711
   0.68656746  0.60849877  0.40775343
   0.67548235  0.71927572  0.36780862
   0.66907592  0.49850677  0.32905764
   0.96795090  0.66337699  0.62878662
   0.88781038  0.57954918  0.66252278
   0.86367226  0.65758534  0.57275115
   0.02665691  0.64646461  0.44402308
   0.05142550  0.52647468  0.45074029
   0.08986908  0.59634318  0.54004526
   0.94463784  0.45369061  0.45724555
   0.02648337  0.99945679  0.27813342
   0.01839016  0.04126781  0.39053255
   0.92878663  0.98954173  0.34162794
   0.13856504  0.92648251  0.46694706
   0.16282209  0.93278082  0.35026845
   0.14884045  0.82703148  0.39918933
   0.01563719  0.77219261  0.40841863
   0.61448779  0.06343809  0.21731352
   0.54407013  0.96350350  0.22763803
   0.61794334  0.98337507  0.12702260
   0.65720199  0.86445592  0.35982877
   0.64562372  0.97808565  0.37329876
   0.75508116  0.92787496  0.35867885
   0.80502166  0.87473373  0.21543636
   0.19989817  0.18362827  0.01798513
   0.19942050  0.10615795  0.12214013
   0.13381436  0.20686545  0.10822737
   0.04463656  0.05511682  0.91203228
   0.10733071  0.15960095  0.91571928
   0.99970823  0.15837062  0.96935080
   0.04618456  0.95806579  0.02765933
   0.71751975  0.45239599  0.60066324
   0.21249380  0.84729922  0.94058132
   0.65123625  0.79577495  0.64915681
   0.32975028  0.46066808  0.68830149
   0.39512610  0.63290858  0.12601504
   0.43140072  0.28727465  0.11495655
   0.66524129  0.53282814  0.88147021
   0.95160719  0.05275590  0.57061801
   0.02150723  0.59664466  0.18126771
   0.53534410  0.23250074  0.46180853
   0.78360568  0.22826990  0.01683933
   0.22128416  0.77715381  0.63830147
   0.65584105  0.21512192  0.73047310
   0.15996500  0.30981309  0.37261312
   0.10886221  0.52701145  0.86880120
   0.77605192  0.24604876  0.29563785
   0.49925555  0.85699295  0.93387367
   0.27395825  0.13571232  0.73391564
   0.34321212  0.05161154  0.32168256
   0.85094741  0.83705060  0.88260247
   0.39681245  0.62860824  0.38626814
   0.94453063  0.23243270  0.74778136
   0.69771736  0.61485857  0.27236262
   0.95679385  0.55990978  0.54143618
   0.02647781  0.90142623  0.37750059
   0.68711545  0.94112437  0.24187659
   0.10062609  0.08776090  0.03384514
   0.28609142  0.91541641  0.82519248
   0.67605244  0.94928465  0.63270504
   0.18462058  0.40852037  0.64619018
   0.52401094  0.70567303  0.18212028
   0.33775232  0.40268996  0.05952324
   0.70351412  0.52893506  0.73157813
   0.08584941  0.11638237  0.55079700
   0.14627955  0.60791776  0.27110773
   0.56194008  0.08200058  0.48786979
   0.66013217  0.29691722  0.96185363
   0.10100607  0.86897081  0.61378772
   0.70005578  0.34740679  0.66779711
   0.09160913  0.35132264  0.24854968
   0.09754623  0.66224926  0.80312699
   0.66898077  0.20101705  0.20206953
   0.46062396  0.72208995  0.87233330
   0.25814451  0.21116580  0.86495011
   0.32781794  0.10389354  0.47078171
   0.87793916  0.68816772  0.87283381
   0.30275050  0.74863178  0.39204094
   0.84594735  0.14170440  0.82541689
   0.67910956  0.48430105  0.18927660
   0.84811864  0.45024855  0.55688007
   0.89060582  0.82168947  0.37763719
   0.75599831  0.94669224  0.10498172
   0.12981957  0.98333568  0.13713017
Direct configuration=   100
   0.27259969  0.85105010  0.00794618
   0.12633089  0.79312452  0.97710285
   0.21108403  0.87293960  0.86121967
   0.74857253  0.78148410  0.65200843
   0.59180033  0.73221940  0.66694623
   0.63790720  0.88746967  0.64349721
   0.30874515  0.46406638  0.77644201
   0.42257579  0.49233244  0.65768787
   0.26573844  0.43595204  0.62630470
   0.44015319  0.59165814  0.06488364
   0.28908886  0.62232683  0.14755062
   0.43420294  0.69143877  0.18928413
   0.49486299  0.35933804  0.14179022
   0.45858982  0.20425468  0.10039264
   0.35604601  0.33241525  0.06361613
   0.56838575  0.53414213  0.85530665
   0.68677468  0.54354819  0.97163648
   0.72237054  0.53778881  0.81550877
   0.89832570  0.11946361  0.52455987
   0.90228222  0.98203949  0.61297293
   0.03924778  0.05962726  0.58574380
   0.01038945  0.68951126  0.17646094
   0.96753090  0.54037438  0.12263716
   0.10309793  0.55679074  0.22275811
   0.50508208  0.25884619  0.54655554
   0.52547821  0.29242662  0.38360304
   0.53988608  0.13643550  0.43543447
   0.82488318  0.30562030  0.01609789
   0.81396309  0.14792202  0.05748973
   0.68872588  0.22726641  0.99597415
   0.27243741  0.83904148  0.62659599
   0.25102699  0.67693132  0.66197986
   0.12434325  0.77413600  0.63293250
   0.69494318  0.16672697  0.67172980
   0.59865007  0.18481216  0.80233500
   0.65049970  0.31789494  0.71552941
   0.23905507  0.38312093  0.34870032
   0.17809329  0.26218860  0.43677390
   0.10184874  0.29721189  0.30105712
   0.00370189  0.51091859  0.85208316
   0.14926818  0.45755354  0.92939626
   0.13617376  0.60701052  0.86275997
   0.78994853  0.15815021  0.32458730
   0.81911200  0.32187913  0.34081575
   0.72402432  0.26938046  0.22933574
   0.52251032  0.82421359  0.01211207
   0.51885776  0.95945548  0.92085470
   0.46649252  0.81781514  0.85907723
   0.32992205  0.20813059  0.68295660
   0.26101140  0.06131404  0.67730181
   0.24503862  0.14624324  0.81313123
   0.30255555  0.13156707  0.29314875
   0.34089552  0.97030435  0.27229462
   0.34235070  0.04725250  0.42054465
   0.77024680  0.82301414  0.92287162
   0.88577230  0.92355752  0.85257340
   0.90396417  0.76281343  0.85431363
   0.47919925  0.67595545  0.41061656
   0.40871751  0.52932589  0.36377013
   0.31770916  0.66064660  0.37846396
   0.89833920  0.31243942  0.75841548
   0.04111628  0.25036151  0.71268535
   0.92794441  0.15883053  0.79059263
   0.74102423  0.66138696  0.17924573
   0.73268723  0.66007891  0.34804889
   0.69776790  0.52265674  0.26329492
   0.93642166  0.60786989  0.60755552
   0.04540305  0.57047526  0.48996680
   0.91278679  0.47385410  0.51455712
   0.99329615  0.97709220  0.34160940
   0.13163807  0.89152571  0.39348543
   0.97822749  0.82654232  0.38951977
   0.59859784  0.97143997  0.20159992
   0.67129226  0.91348327  0.34004385
   0.75512220  0.91701276  0.19946117
   0.15819154  0.16166468  0.07277596
   0.04937133  0.11232295  0.96305243
   0.09162395  0.00963085  0.07497690
   0.61093644  0.49012895  0.49413005
   0.32005237  0.89601296  0.97437480
   0.29315649  0.78572893  0.03381530
   0.23333407  0.88734039  0.05713095
   0.07952989  0.77368647  0.92773963
   0.10091611  0.83546683  0.02918219
   0.15976018  0.73143801  0.00921969
   0.15119584  0.86557522  0.81711201
   0.76757961  0.72096304  0.69124992
   0.78690538  0.83950090  0.67388715
   0.77393268  0.77402222  0.58482530
   0.58263135  0.70337372  0.73613013
   0.61143721  0.68515866  0.61733917
   0.52725360  0.75218033  0.63951737
   0.56807278  0.89676420  0.62638732
   0.23926541  0.48324340  0.78075537
   0.34349995  0.51839497  0.81000624
   0.31806434  0.39862603  0.80974712
   0.44047582  0.48569430  0.58368225
   0.47367879  0.45193612  0.69638022
   0.44413859  0.55844294  0.67715567
   0.28869042  0.44028532  0.55801827
   0.43092855  0.63662465  0.00769962
   0.41073950  0.52433526  0.05183416
   0.51044514  0.57978537  0.08410658
   0.26635075  0.65957017  0.20490851
   0.28308455  0.54963098  0.14919133
   0.25168162  0.65331570  0.08987877
   0.39108335  0.72299033  0.23689768
   0.45831367  0.42562560  0.14682631
   0.55807309  0.36565826  0.10934921
   0.51197558  0.32905176  0.20870549
   0.51957830  0.19056300  0.05891358
   0.40406535  0.16148553  0.06815120
   0.47224916  0.17642129  0.16477239
   0.31488213  0.27782206  0.03718603
   0.56070962  0.55834017  0.78448983
   0.53071115  0.58917195  0.89256190
   0.53847978  0.46765726  0.85864026
   0.65760941  0.49228262  0.01603688
   0.66723451  0.60866992  0.00304617
   0.76061425  0.54676382  0.97342818
   0.78873651  0.54400482  0.84451093
   0.95342533  0.15801837  0.50062649
   0.85059024  0.15778664  0.56129795
   0.86289307  0.08343724  0.47043984
   0.84296786  0.00719638  0.65462272
   0.94630164  0.93811130  0.64998449
   0.88325235  0.93987916  0.55612819
   0.06002789  0.00819270  0.63669477
   0.06287874  0.72846881  0.20835698
   0.95148921  0.70518652  0.22017434
   0.99910211  0.70869591  0.10583880
   0.96737639  0.46993779  0.13435950
   0.96945902  0.55962791  0.05119870
   0.89988665  0.56712846  0.14972374
   0.12099398  0.49266308  0.19757502
   0.53106674  0.32705942  0.55798556
   0.54230559  0.21590928  0.59377617
   0.43427682  0.26154981  0.57026980
   0.57212422  0.26951422  0.33383670
   0.56536226  0.34474105  0.41751640
   0.46618993  0.30755084  0.34592454
   0.55038592  0.13056881  0.36031387
   0.78777433  0.36720961  0.02988001
   0.85854559  0.31181233  0.95059890
   0.88510387  0.30671594  0.06246836
   0.76336609  0.09880651  0.07249974
   0.85711691  0.15842224  0.11285749
   0.85276493  0.12274541  0.00098967
   0.65832118  0.16048948  0.00937583
   0.28202441  0.87284013  0.69043920
   0.24630657  0.88279563  0.57566793
   0.33282000  0.80974165  0.59746235
   0.26990247  0.64048481  0.59990683
   0.20020888  0.62953014  0.68923992
   0.30550814  0.68413201  0.71200355
   0.09250180  0.71346379  0.66699263
   0.65722324  0.10486841  0.66610790
   0.76412022  0.15336888  0.69094054
   0.70594648  0.19590040  0.60763136
   0.56996437  0.23497482  0.85136882
   0.63924565  0.13648739  0.83916081
   0.54077567  0.14702435  0.78158361
   0.60786052  0.36401182  0.75478296
   0.29446744  0.34043341  0.32790479
   0.25639130  0.42011987  0.40828646
   0.22312031  0.43042106  0.29741606
   0.11482232  0.22247187  0.44656253
   0.18709275  0.30741108  0.49280030
   0.23646468  0.21660661  0.43390969
   0.06067822  0.23454443  0.32539195
   0.00230907  0.47584808  0.78718214
   0.97423132  0.57830335  0.84548428
   0.97487872  0.46378453  0.90412754
   0.17350488  0.39809201  0.89181473
   0.10224838  0.42817775  0.97875413
   0.19946127  0.49192477  0.96958513
   0.20688295  0.61278495  0.88029799
   0.75382752  0.15026046  0.39114377
   0.85848392  0.14421542  0.33112785
   0.75801661  0.11709970  0.27081294
   0.87571065  0.29854327  0.38085898
   0.77676682  0.34276615  0.39687458
   0.83716945  0.37669072  0.30202956
   0.73342015  0.33650795  0.20528121
   0.52583801  0.75121821  0.00250813
   0.46246862  0.83719131  0.05615730
   0.58179900  0.84798148  0.04647314
   0.59292156  0.97583549  0.92136083
   0.48881297  0.98986703  0.97897492
   0.49247822  0.98375891  0.85557475
   0.44438499  0.85983096  0.80423571
   0.39851572  0.18593108  0.70048202
   0.32841529  0.27314927  0.72145862
   0.31490024  0.22406816  0.61240025
   0.31607251  0.01257500  0.68288333
   0.25277082  0.07614415  0.60531457
   0.20170555  0.02774429  0.70373069
   0.20922284  0.08409538  0.83011266
   0.22684775  0.12868853  0.28304901
   0.32835963  0.14407150  0.22437679
   0.32178570  0.18702870  0.33884944
   0.31880724  0.90817405  0.29947056
   0.41074370  0.96341575  0.25016156
   0.30310968  0.98169190  0.21090924
   0.36216754  0.98147211  0.44276285
   0.76147443  0.86427448  0.98375022
   0.76282949  0.75121511  0.93639765
   0.71760674  0.85021599  0.87964729
   0.95179883  0.91757006  0.81770485
   0.90029118  0.96047566  0.91370440
   0.83570108  0.95872923  0.81580899
   0.96255580  0.77961309  0.81349063
   0.53178952  0.63064313  0.44111297
   0.45837516  0.73366773  0.44802361
   0.51316276  0.70095234  0.35331637
   0.34429937  0.49465245  0.37343856
   0.45938022  0.49776669  0.40881187
   0.43195432  0.52150549  0.29232293
   0.26091165  0.60959776  0.36571801
   0.88065910  0.33351012  0.69293569
   0.92974256  0.36370720  0.80212397
   0.83590173  0.29333004  0.78508248
   0.05899125  0.19274285  0.67120759
   0.09389975  0.26503358  0.75645307
   0.02985264  0.30712868  0.66762910
   0.97510109  0.10236833  0.77965432
   0.69648529  0.71704377  0.17482266
   0.74812559  0.60828972  0.13030251
   0.80851297  0.68641918  0.18359646
   0.80413957  0.68372262  0.35165399
   0.71538245  0.62220090  0.40610380
   0.68673568  0.71590756  0.34392867
   0.67580476  0.50435464  0.32938611
   0.97847080  0.59674893  0.66884699
   0.86709625  0.59926657  0.62235926
   0.94948704  0.67724177  0.58722631
   0.03169026  0.62172596  0.44178734
   0.08426079  0.51664231  0.45174101
   0.09259475  0.59522379  0.53984659
   0.94777187  0.42821447  0.46565419
   0.04319914  0.02186941  0.30765244
   0.96365554  0.00710679  0.40435825
   0.93605896  0.96573199  0.29649798
   0.14427823  0.93335235  0.44748613
   0.17533242  0.90439691  0.33548579
   0.14942173  0.82397265  0.41861976
   0.01274248  0.76715015  0.41442385
   0.58875787  0.04361014  0.20945144
   0.54024531  0.93657598  0.22360956
   0.60644830  0.96028259  0.12962069
   0.62370056  0.85339068  0.34278379
   0.64206144  0.97006913  0.37470062
   0.73864408  0.88845368  0.36148203
   0.80184120  0.89805095  0.25044286
   0.17779548  0.19895210  0.01543157
   0.21261986  0.13694388  0.11505661
   0.11113806  0.21141436  0.10397950
   0.02521084  0.05084461  0.93235019
   0.08681670  0.15176143  0.91535808
   0.99879091  0.15319740  0.99004963
   0.04300921  0.96780524  0.03906167
   0.72081645  0.47058295  0.61632852
   0.20657199  0.83465259  0.94181758
   0.65818089  0.80209677  0.66374722
   0.32994095  0.47048131  0.68055075
   0.38757014  0.63529364  0.13273114
   0.43739649  0.29966040  0.09171829
   0.66000166  0.53863491  0.87951106
   0.94701365  0.05690249  0.57820572
   0.03316373  0.59275857  0.17513162
   0.51827167  0.22468692  0.45600635
   0.77127872  0.23101438  0.02844106
   0.21214911  0.76157992  0.63540991
   0.65203508  0.23014769  0.73343779
   0.17310818  0.31244423  0.35670497
   0.09792829  0.52615748  0.87891153
   0.77946719  0.24569764  0.29527773
   0.51012244  0.86222871  0.92582149
   0.26996393  0.14515452  0.72255342
   0.33697911  0.04856547  0.32893027
   0.85454438  0.83366176  0.87337537
   0.40063938  0.62363763  0.38871412
   0.95343558  0.23589213  0.75300004
   0.72559743  0.60748454  0.26400980
   0.95898699  0.55020849  0.53218045
   0.03602558  0.89485062  0.36870632
   0.67732397  0.93644761  0.24422656
   0.10917752  0.08768310  0.03510639
   0.27659337  0.91862019  0.83533535
   0.69637232  0.94736279  0.63439322
   0.19519137  0.40116905  0.65721738
   0.51245263  0.70712534  0.17365515
   0.33182960  0.41160955  0.05800700
   0.70911000  0.54065105  0.73394496
   0.08745379  0.10631687  0.53732051
   0.13808936  0.59542340  0.28561563
   0.54450561  0.07448931  0.48980215
   0.65119184  0.28974040  0.95715994
   0.07822625  0.83626478  0.60110842
   0.69741749  0.35184824  0.65467451
   0.08404535  0.34330747  0.23653393
   0.09713664  0.66921360  0.82599346
   0.66502937  0.21884417  0.19986942
   0.44446494  0.73842509  0.85808242
   0.26177333  0.20781568  0.86740629
   0.32750889  0.10854535  0.47130607
   0.89179205  0.69129030  0.89288872
   0.30160446  0.74191744  0.38474594
   0.85795128  0.14274309  0.83430332
   0.68019830  0.47261682  0.19476104
   0.83597634  0.46012290  0.54233774
   0.89639063  0.83411052  0.37709779
   0.77522335  0.92366072  0.12000418
   0.12548925  0.98709420  0.14734391
Direct configuration=   150
   0.28221633  0.84344710  0.01846239
   0.12009917  0.79866357  0.99907013
   0.19820232  0.87196714  0.88089767
   0.76295060  0.77226899  0.65881952
   0.59975701  0.73973021  0.65738405
   0.64808683  0.89559067  0.65101795
   0.30230468  0.49508260  0.78027175
   0.41823050  0.50624773  0.65261893
   0.28118587  0.42532019  0.62912826
   0.44123574  0.58106680  0.07505806
   0.29621937  0.62953867  0.13249318
   0.42776955  0.71178880  0.17998924
   0.49253308  0.37399959  0.13741124
   0.46601259  0.21629431  0.08943295
   0.35641782  0.33691180  0.04858335
   0.56826048  0.54793635  0.84264923
   0.67940823  0.51859930  0.96293655
   0.73088667  0.54824738  0.80905159
   0.90200628  0.12035690  0.53352196
   0.90272003  0.97510679  0.62014075
   0.04049776  0.04238288  0.56733134
   0.01272046  0.68776155  0.19234552
   0.97336689  0.53928919  0.11385734
   0.08257229  0.55104582  0.22608423
   0.49844609  0.25601010  0.52275473
   0.52870561  0.27777255  0.36294258
   0.53456922  0.12876652  0.43537494
   0.82379949  0.30776438  0.02293956
   0.80807401  0.14711889  0.06112708
   0.68194676  0.23269097  0.00167356
   0.25209779  0.82939333  0.63228609
   0.26267683  0.67041624  0.65915468
   0.11722771  0.74539941  0.62055596
   0.67876816  0.17290263  0.65890126
   0.57544048  0.19658050  0.78893419
   0.65172256  0.31736304  0.71411136
   0.22565528  0.38967100  0.32346246
   0.18122802  0.27658735  0.43238236
   0.10368196  0.28976403  0.29410959
   0.00250962  0.50817050  0.86562564
   0.13434312  0.45082662  0.93198305
   0.13055168  0.60348308  0.88203503
   0.78310903  0.16156037  0.32076977
   0.82598276  0.31545411  0.34590978
   0.70842438  0.27907115  0.23069058
   0.52386581  0.81936695  0.99447472
   0.52687329  0.96794992  0.91310404
   0.46249222  0.83187222  0.84761944
   0.32861430  0.21366091  0.69015800
   0.25433961  0.06343027  0.67235758
   0.24886733  0.14834869  0.81195399
   0.30701529  0.13163828  0.29019849
   0.33472279  0.96640720  0.28001643
   0.33170338  0.03941224  0.42689424
   0.77624177  0.82688192  0.92755566
   0.89408170  0.91481555  0.85621572
   0.91621645  0.75654076  0.86943611
   0.48257124  0.67377318  0.40116862
   0.41893395  0.53264110  0.36191431
   0.32164385  0.66137583  0.38541891
   0.89357907  0.31291121  0.76751789
   0.04202851  0.25894625  0.70226691
   0.94427602  0.16266524  0.79044820
   0.75616523  0.64999896  0.17136631
   0.75078030  0.66316304  0.34364531
   0.70868242  0.52423673  0.25966950
   0.93809252  0.60109129  0.60347724
   0.05293797  0.54005525  0.49022038
   0.90383085  0.47990311  0.50552705
   0.00643982  0.97792988  0.32595841
   0.13238834  0.88630562  0.37629584
   0.98077883  0.82955605  0.39057619
   0.61073076  0.95570682  0.19203999
   0.65099523  0.90855946  0.35018298
   0.75826421  0.90529229  0.21820439
   0.15917988  0.16641570  0.07591943
   0.04650559  0.11298379  0.97057717
   0.09090064  0.01813964  0.08744018
   0.61466602  0.50313563  0.50307650
   0.32228998  0.89037944  0.97632280
   0.30737849  0.77506876  0.01632717
   0.26433273  0.86032692  0.08719280
   0.06661492  0.83273460  0.95752611
   0.11212814  0.82594500  0.06789014
   0.11311055  0.72861745  0.99636224
   0.13968763  0.85511230  0.84101661
   0.76407297  0.70056623  0.66405995
   0.80120671  0.79841545  0.71722810
   0.80090992  0.79021014  0.59608012
   0.59968084  0.70392622  0.71985641
   0.59848595  0.68785300  0.60074115
   0.53344518  0.77310352  0.65231321
   0.57706546  0.90635323  0.67162837
   0.22907719  0.50896562  0.78025616
   0.33867233  0.55365876  0.80515793
   0.31724231  0.43647879  0.82161048
   0.40515779  0.52592979  0.58483075
   0.47613829  0.46412352  0.65638195
   0.44343458  0.56762272  0.68545108
   0.32465514  0.41967947  0.56553269
   0.45085346  0.60470583  0.00577712
   0.40204181  0.51879389  0.06057591
   0.50433471  0.56472853  0.11126979
   0.26350694  0.68616600  0.16727034
   0.28515245  0.56050565  0.15405917
   0.26169966  0.63685207  0.06974338
   0.37985346  0.75320939  0.21885612
   0.45279938  0.42765162  0.16836372
   0.54117279  0.39931966  0.08794551
   0.52820745  0.33782397  0.18789986
   0.53671753  0.21358719  0.09223418
   0.44138724  0.17800240  0.03446382
   0.44771852  0.18014953  0.15391120
   0.33006895  0.28311853  0.00474679
   0.56344890  0.53389797  0.77205968
   0.53888371  0.60992674  0.85996264
   0.53183735  0.49019350  0.87130676
   0.67334597  0.44620235  0.96680460
   0.62442586  0.53907727  0.00237750
   0.74412185  0.54741171  0.98841839
   0.80109228  0.54877675  0.84223680
   0.94590780  0.16807507  0.49516415
   0.85646096  0.14820379  0.58515644
   0.85387853  0.08075878  0.49390192
   0.85203361  0.00106976  0.66013260
   0.95365029  0.93564424  0.65565385
   0.87621125  0.93030157  0.56686045
   0.06783648  0.97918498  0.59257914
   0.07571238  0.72776857  0.19604568
   0.98326291  0.69087656  0.25825910
   0.96769749  0.71866709  0.14455561
   0.02101203  0.49309112  0.07827593
   0.93921899  0.58137700  0.06346359
   0.92724975  0.49612083  0.14756831
   0.07766380  0.47329333  0.22078129
   0.54027672  0.31046469  0.55012213
   0.50041719  0.20435445  0.57084025
   0.43219067  0.28365082  0.52052246
   0.54712333  0.24621374  0.29709727
   0.57062846  0.33621994  0.36995926
   0.45438697  0.29408526  0.36154770
   0.55301746  0.11252708  0.36507048
   0.78387279  0.36739899  0.03393612
   0.86500323  0.31389129  0.96345795
   0.87735977  0.30793671  0.07159804
   0.75175520  0.09821938  0.07968075
   0.83875231  0.16829938  0.12620525
   0.86168247  0.12211119  0.01587248
   0.64907994  0.16669886  0.00923707
   0.29878613  0.83348746  0.68991547
   0.20306684  0.88366547  0.64270126
   0.28482006  0.83931136  0.56704477
   0.32688937  0.67366499  0.62324579