unknown system                          
           1
    15.000000    0.000000    0.000000
     0.000000   15.000000    0.000000
     0.000000    0.000000   15.000000
   C    Cl   H    N    O 
  85   1 197  24  23
Direct configuration=    50
   0.55498114  0.90515080  0.42306389
   0.48150797  0.90086252  0.27422333
   0.51542192  0.76247099  0.34981845
   0.16342921  0.98701623  0.50942844
   0.13223422  0.91487929  0.65614586
   0.28377505  0.92426966  0.59675185
   0.56782018  0.43517971  0.88456368
   0.58254378  0.31312518  0.77740376
   0.43538118  0.34462966  0.86060905
   0.66512035  0.59869907  0.02150573
   0.55011277  0.55395150  0.12524999
   0.70318756  0.49747996  0.13529569
   0.01204806  0.82907294  0.83705753
   0.96098234  0.91218240  0.97164917
   0.04892167  0.76863645  0.99195704
   0.04144487  0.38819392  0.37207512
   0.91174739  0.36182273  0.26679355
   0.97047249  0.50968842  0.29614539
   0.13008219  0.09058769  0.89598882
   0.25658050  0.14168927  0.78700805
   0.27472981  0.14600217  0.94688142
   0.24147768  0.50998696  0.04526876
   0.11945773  0.39339720  0.03558518
   0.22373519  0.39221109  0.15524676
   0.73955584  0.21744165  0.45018115
   0.72221850  0.05619813  0.40716228
   0.86238896  0.14059457  0.39133961
   0.19989995  0.76076874  0.18741556
   0.25127497  0.84858514  0.32056329
   0.10020925  0.85585872  0.26818568
   0.88867358  0.04963708  0.81226743
   0.77740728  0.13727134  0.71869588
   0.93859441  0.13997636  0.68614913
   0.10013834  0.38926083  0.76231566
   0.96655052  0.37670686  0.66079121
   0.96231718  0.31138386  0.80721246
   0.48924154  0.50962784  0.53988445
   0.48552932  0.50361676  0.36668355
   0.54164572  0.37971573  0.46627245
   0.17015474  0.27379254  0.59765247
   0.30464437  0.20262706  0.53470978
   0.32154264  0.32662307  0.63208987
   0.78176083  0.17928124  0.16372033
   0.75603615  0.24947589  0.01027263
   0.86947134  0.13575750  0.03864547
   0.47365984  0.14431856  0.21503588
   0.42473524  0.25595677  0.09589259
   0.54066961  0.28381104  0.21092353
   0.27727693  0.93442190  0.01219177
   0.42958592  0.99016985  0.01774448
   0.36223791  0.94723068  0.87671347
   0.45608595  0.11263667  0.65669316
   0.57503930  0.00441803  0.65205041
   0.54005947  0.07091050  0.79484542
   0.08744557  0.12941977  0.30818779
   0.09304991  0.05359842  0.16706789
   0.22723431  0.07251156  0.24713324
   0.23317912  0.51209739  0.54509800
   0.24976595  0.65219545  0.45535300
   0.09927379  0.59870948  0.50989050
   0.60647970  0.81800200  0.90590803
   0.68654280  0.93129925  0.98921609
   0.59296928  0.82745330  0.06727833
   0.83774798  0.75255888  0.57524759
   0.69017489  0.66621178  0.58831613
   0.80575082  0.65849310  0.70787586
   0.83353514  0.58840977  0.56446741
   0.80497515  0.57626743  0.46970367
   0.81598826  0.78194987  0.48141658
   0.63151258  0.74105366  0.62710639
   0.89954279  0.63836285  0.74265536
   0.54928126  0.71288087  0.68381090
   0.86192016  0.87187561  0.46321087
   0.75779102  0.49074231  0.45592545
   0.89540118  0.62079918  0.84477359
   0.71634475  0.47971568  0.36591365
   0.95866106  0.85940317  0.44235606
   0.49926897  0.78980720  0.72407912
   0.84839615  0.53267461  0.87221165
   0.82187460  0.73531384  0.11454439
   0.83238988  0.87673532  0.19361713
   0.74031048  0.75217435  0.25095620
   0.24116293  0.69629969  0.84166707
   0.36492225  0.58320742  0.82823203
   0.31541014  0.68004234  0.70421061
   0.77203531  0.90355605  0.72617036
   0.50701778  0.95443679  0.45094080
   0.61154146  0.94022188  0.39466586
   0.58155026  0.85676144  0.47262541
   0.44713234  0.96091223  0.29082317
   0.43661874  0.85746659  0.23390890
   0.53682012  0.91553561  0.22510173
   0.49319782  0.73654529  0.28375259
   0.12677713  0.94279702  0.46318049
   0.22315181  0.01120686  0.47561797
   0.11705108  0.04082393  0.53472239
   0.16300214  0.87093539  0.70571419
   0.06788385  0.88492244  0.63571606
   0.11422279  0.97839280  0.69277436
   0.29570642  0.88907309  0.66024615
   0.52043233  0.48664817  0.90355510
   0.61413713  0.46785700  0.83650505
   0.60179037  0.40826423  0.94490401
   0.60955480  0.34961029  0.71831330
   0.54649069  0.25984072  0.74733285
   0.63400112  0.28381429  0.81880015
   0.40689118  0.28020626  0.83315256
   0.66029857  0.55135132  0.96270785
   0.73736941  0.61472997  0.02906717
   0.61867166  0.65085079  0.01404795
   0.50413859  0.51283032  0.08469511
   0.53539698  0.62503030  0.12020124
   0.54783875  0.53458826  0.19596722
   0.67802907  0.45794488  0.19428326
   0.04308983  0.88656368  0.80587108
   0.94240548  0.82285228  0.81383552
   0.04454466  0.76680757  0.81459876
   0.96518065  0.91245265  0.04563782
   0.89109157  0.89905707  0.94869540
   0.98775323  0.97220990  0.94443326
   0.03663712  0.78365886  0.06559597
   0.01349344  0.39182180  0.43916313
   0.10237314  0.42815054  0.36595407
   0.05994147  0.32024670  0.35344931
   0.95613942  0.30653445  0.24275319
   0.87933182  0.40011974  0.20663603
   0.85858542  0.33546702  0.30839623
   0.91729342  0.53137199  0.25251461
   0.08299489  0.11403605  0.84529948
   0.10191237  0.11451948  0.96011276
   0.12831489  0.01761641  0.89715262
   0.26471915  0.21373377  0.78022777
   0.20428281  0.12392110  0.74081517
   0.31623794  0.09938385  0.77673394
   0.33399778  0.18021686  0.91910299
   0.30067041  0.51637064  0.08726971
   0.21141021  0.57449605  0.03185960
   0.25963810  0.48320307  0.97809585
   0.14746703  0.35568673  0.98046907
   0.06448152  0.43284463  0.00455816
   0.09049366  0.34040636  0.07515296
   0.18116688  0.33532618  0.17526213
   0.79141438  0.25908970  0.48253716
   0.68688602  0.20166619  0.49827769
   0.70885881  0.26457828  0.39867134
   0.71051647  0.02698766  0.47437046
   0.75320349  0.00669930  0.36125482
   0.65980069  0.08040538  0.37741996
   0.88769787  0.07695925  0.36664080
   0.19196208  0.79545907  0.12393200
   0.15274512  0.70683038  0.18645008
   0.26849017  0.73290619  0.18590422
   0.25864384  0.80752076  0.37933813
   0.23963798  0.91608274  0.34551586
   0.31361090  0.84981704  0.28311589
   0.09238502  0.89623804  0.32932784
   0.93551992  0.07928269  0.85910008
   0.91275958  0.98412676  0.78934529
   0.82431076  0.04815313  0.84713490
   0.73639041  0.07844139  0.69470626
   0.77720298  0.19759113  0.67408265
   0.74423624  0.16270441  0.78359642
   0.91776379  0.18680116  0.63188365
   0.11596274  0.41600661  0.82766190
   0.11685286  0.43848014  0.71253230
   0.14415723  0.33125319  0.75755288
   0.98507032  0.43875260  0.63051964
   0.89149489  0.37579294  0.66552709
   0.98751773  0.31996356  0.61897735
   0.89758682  0.28627310  0.78468227
   0.55689319  0.53239685  0.56350105
   0.45708181  0.46842749  0.59319794
   0.45615596  0.57206469  0.52596553
   0.41411515  0.50411276  0.34532666
   0.52648196  0.46159101  0.32324157
   0.51335271  0.57026249  0.37431789
   0.56455558  0.34695269  0.40245403
   0.13751937  0.27565528  0.53191602
   0.14783994  0.33079239  0.64095050
   0.14934592  0.21289681  0.63219297
   0.28389824  0.19980211  0.46589252
   0.28308223  0.13934062  0.56558866
   0.37579138  0.20192987  0.53478764
   0.39421314  0.33247676  0.60661540
   0.76453147  0.24402143  0.20103592
   0.83445367  0.14010339  0.18786041
   0.71743995  0.14613737  0.17741495
   0.69164653  0.22037868  0.98291240
   0.79518288  0.26343290  0.95004649
   0.74519811  0.31563005  0.04164449
   0.89734527  0.15083006  0.97128919
   0.53966039  0.11290420  0.21030830
   0.42362849  0.10152210  0.18341335
   0.45610021  0.15589132  0.28524431
   0.41708258  0.33235555  0.09204266
   0.36276760  0.22139527  0.10143974
   0.45538221  0.23266130  0.03419251
   0.54393737  0.35133665  0.18364453
   0.22254888  0.90811136  0.97190678
   0.24600577  0.99588928  0.03847498
   0.29560307  0.89501441  0.07366084
   0.48279016  0.00947863  0.97264791
   0.44818162  0.93735695  0.06694009
   0.40516615  0.04093973  0.06466295
   0.43198879  0.96240248  0.84744362
   0.41558049  0.15672248  0.70437268
   0.41467690  0.06575442  0.62265581
   0.48806693  0.15699050  0.60980496
   0.53574054  0.94680695  0.63278447
   0.63046295  0.97492685  0.69024320
   0.59416587  0.03431855  0.58659834
   0.59336841  0.02578653  0.81781447
   0.05971242  0.08142061  0.35843816
   0.03115756  0.16350789  0.28069308
   0.13168687  0.17684173  0.34810195
   0.02496903  0.03776313  0.18640538
   0.13172899  0.99324211  0.14546544
   0.09211475  0.09948452  0.11076378
   0.25403071  0.04118185  0.18464932
   0.28012578  0.48322331  0.49294804
   0.18652558  0.46159275  0.57308963
   0.28061783  0.52521379  0.60100450
   0.30610229  0.67239229  0.49707745
   0.20995248  0.71215339  0.44702573
   0.27353458  0.62477957  0.38938126
   0.07300524  0.65659520  0.46926876
   0.64979756  0.76381240  0.88568531
   0.61281531  0.86966934  0.85731842
   0.53563306  0.79163845  0.91262568
   0.64757081  0.98389187  0.95624943
   0.74417546  0.91981052  0.94808245
   0.70825052  0.95150797  0.06177133
   0.62356593  0.86576267  0.12641762
   0.82394301  0.53295510  0.61009665
   0.90742191  0.59516448  0.56194464
   0.82267304  0.81132860  0.61673603
   0.90907733  0.73403344  0.57115146
   0.66531529  0.60497185  0.62044963
   0.68025109  0.65808025  0.51659605
   0.76759955  0.59659227  0.72185208
   0.78092682  0.71917233  0.74238661
   0.60693159  0.78772042  0.57770740
   0.66770157  0.79119413  0.66872673
   0.74151004  0.78356428  0.47452302
   0.83287277  0.73149162  0.43188432
   0.86352873  0.57806515  0.42661461
   0.76567452  0.63319909  0.45289665
   0.94227588  0.69394483  0.73449584
   0.92770493  0.57824240  0.70664278
   0.70060755  0.48639321  0.50292829
   0.81173816  0.44009265  0.46720873
   0.76352654  0.48184101  0.30791694
   0.66671090  0.53210730  0.36056058
   0.67331029  0.42154209  0.36089088
   0.82551413  0.89788717  0.40784574
   0.84348748  0.91938607  0.51468735
   0.99625987  0.82386574  0.49424718
   0.99232586  0.92387641  0.44549277
   0.97588106  0.82521664  0.37798486
   0.57794909  0.67149348  0.73809631
   0.49724356  0.67214948  0.65110552
   0.54445871  0.82980618  0.76334586
   0.43920440  0.77583951  0.76702476
   0.47487146  0.83288216  0.66392737
   0.85468498  0.67483554  0.87869788
   0.96777768  0.62432062  0.86934218
   0.77832736  0.53021678  0.84488846
   0.83885044  0.53474202  0.94265546
   0.87365818  0.46891483  0.85131033
   0.90778754  0.87634841  0.19650440
   0.80469868  0.90859288  0.25356461
   0.80197822  0.66537812  0.12116935
   0.89487693  0.74467594  0.10523446
   0.80749729  0.91736904  0.13986045
   0.78437051  0.75415201  0.05331433
   0.72383538  0.68032305  0.23333493
   0.22695288  0.76704283  0.82948579
   0.25779627  0.68972572  0.91427611
   0.17605765  0.65752272  0.83556326
   0.39412283  0.60634084  0.89401664
   0.41095050  0.56075057  0.77808969
   0.32942235  0.52465131  0.84914936
   0.37613124  0.65906616  0.66999270
   0.51509918  0.85278284  0.35040370
   0.19506722  0.93617144  0.58356374
   0.52257531  0.36392309  0.83538564
   0.64110579  0.55035198  0.10054868
   0.01574416  0.83792476  0.93450532
   0.97220764  0.42226546  0.31018827
   0.22161400  0.12085621  0.87875385
   0.18491487  0.44312345  0.08819269
   0.77686334  0.13445216  0.41513704
   0.18253620  0.82140400  0.25844019
   0.87089970  0.11498974  0.73893670
   0.00602628  0.36911350  0.75022449
   0.49264744  0.45697052  0.45584159
   0.26710903  0.27582946  0.58312488
   0.80437690  0.19331940  0.06682738
   0.48394195  0.23026693  0.17235150
   0.36023794  0.95029246  0.96561505
   0.52285145  0.06157163  0.70733392
   0.13850119  0.08951174  0.24223288
   0.18949284  0.58756225  0.50164341
   0.63527405  0.85222529  0.99277024
   0.78810112  0.67050317  0.60757199
   0.79897862  0.78740724  0.19255309
   0.31344266  0.65642976  0.79109820
   0.54108714  0.70951032  0.40697830
   0.34503395  0.94231477  0.54450492
   0.39007168  0.39449168  0.90701785
   0.78425062  0.49697788  0.11631929
   0.07611491  0.69513076  0.96639678
   0.03145460  0.56017153  0.32312728
   0.25901218  0.14442602  0.02881484
   0.30059304  0.40118231  0.18596297
   0.90573956  0.21256357  0.39166793
   0.03901175  0.83695684  0.21531943
   0.01978566  0.11848497  0.69830005
   0.99187314  0.28614849  0.87958335
   0.55101879  0.34871319  0.54284067
   0.30271201  0.36677563  0.70159166
   0.89829134  0.08096618  0.09262126
   0.58564014  0.25753491  0.27655939
   0.30092244  0.92242718  0.82885370
   0.49667247  0.11450730  0.85026271
   0.27739390  0.08811898  0.30923678
   0.05022275  0.54991299  0.55860965
   0.54079850  0.76709813  0.08206838
   0.70885334  0.79447157  0.31478868
   0.25688645  0.72822960  0.67111018
Direct configuration=   100
   0.52796073  0.89906164  0.43666205
   0.48159939  0.90971682  0.27459504
   0.52022014  0.76893546  0.34087323
   0.17256326  0.00822520  0.50965178
   0.13025489  0.94578421  0.66101748
   0.28233373  0.92440418  0.60136541
   0.58077921  0.44099175  0.90174172
   0.57672423  0.32551020  0.77441387
   0.44409619  0.35941215  0.85919673
   0.65895461  0.59799547  0.00211589
   0.55019600  0.56068172  0.12888261
   0.70223677  0.50331828  0.13432309
   0.01289430  0.82419773  0.82585119
   0.97173126  0.91031804  0.96842671
   0.02960113  0.75503639  0.97585196
   0.06694866  0.38631943  0.35620103
   0.93010738  0.35503315  0.27855965
   0.97261595  0.50778758  0.29206860
   0.12311502  0.10727179  0.89787428
   0.24987577  0.13008958  0.78846725
   0.27110843  0.16510950  0.94857425
   0.21389177  0.49115763  0.04566496
   0.10236178  0.37802942  0.06509185
   0.23533300  0.38452656  0.16603039
   0.72579731  0.21886401  0.44333602
   0.71338054  0.06433567  0.39608760
   0.86575801  0.12966844  0.38552701
   0.20948338  0.74941563  0.20095580
   0.26375289  0.84152475  0.32630841
   0.10996235  0.85058539  0.27609199
   0.88884538  0.06571167  0.81476889
   0.78130139  0.14745449  0.71956085
   0.93654234  0.12264733  0.67134867
   0.08009893  0.40949031  0.79761007
   0.98727786  0.36124662  0.66313802
   0.95624007  0.30287940  0.80563328
   0.47485374  0.51515077  0.54212352
   0.46123109  0.47640705  0.37400017
   0.52584709  0.37259299  0.47726778
   0.17565563  0.26905077  0.60136128
   0.28698626  0.21468154  0.49160736
   0.32833023  0.30871176  0.61979572
   0.78107859  0.21712531  0.16237099
   0.78730668  0.24304720  0.00225744
   0.88190643  0.13260564  0.05406313
   0.48718668  0.13266596  0.19977627
   0.43875085  0.25586008  0.09981203
   0.54294713  0.28851691  0.21905830
   0.28532013  0.92484441  0.02043978
   0.42621989  0.00902861  0.00904254
   0.36419837  0.94395074  0.87719155
   0.43775762  0.10270187  0.66044732
   0.57647658  0.00619062  0.65089768
   0.53796658  0.08631026  0.78749903
   0.09953998  0.13275004  0.30681883
   0.10034396  0.08060920  0.15010789
   0.23553949  0.08141787  0.23873595
   0.22751918  0.50786617  0.54331977
   0.23942138  0.64222497  0.44294613
   0.09871113  0.60281892  0.51585371
   0.60608136  0.80231667  0.91563823
   0.69130721  0.93509231  0.97658141
   0.59964563  0.83824655  0.07218558
   0.82951653  0.76484656  0.57991703
   0.69205114  0.67295835  0.59662606
   0.80107970  0.66913111  0.71213651
   0.83249661  0.59391036  0.56393204
   0.80806532  0.56698303  0.46463813
   0.80096761  0.79762712  0.48397739
   0.64157870  0.75011669  0.63655504
   0.89795484  0.65126287  0.74468096
   0.56093452  0.70889351  0.67695788
   0.87382915  0.86105038  0.45699649
   0.76301022  0.47225647  0.44810217
   0.89671323  0.64264427  0.84850606
   0.72268222  0.47105454  0.35420592
   0.96776339  0.82890368  0.44884961
   0.49283188  0.77531281  0.72009107
   0.85338174  0.55292547  0.87080578
   0.82964760  0.72964391  0.11473194
   0.83020417  0.86444060  0.21389352
   0.71736865  0.75587124  0.23015170
   0.23788283  0.67031232  0.85214924
   0.37047225  0.58191642  0.82464458
   0.31335319  0.67101514  0.70611080
   0.77064970  0.90607458  0.75415275
   0.47278357  0.90273993  0.48316069
   0.54280738  0.96893316  0.41456212
   0.58744096  0.86300778  0.45783345
   0.41698233  0.94941882  0.28041350
   0.48179451  0.87025451  0.21408120
   0.53366748  0.95805621  0.26062127
   0.49419504  0.73667657  0.27777600
   0.11938876  0.97436495  0.47247839
   0.23447221  0.01582159  0.46747691
   0.14472900  0.06934924  0.53182668
   0.14739593  0.88614334  0.69792764
   0.06366819  0.93423098  0.62855561
   0.11507507  0.00226358  0.70151126
   0.28359319  0.88705648  0.66550609
   0.54111338  0.45699039  0.96046861
   0.58192151  0.50311039  0.86352059
   0.64752868  0.41680619  0.92025346
   0.59550983  0.36603185  0.71683497
   0.53193393  0.27683594  0.74026380
   0.64048709  0.29121537  0.79585606
   0.40874363  0.32186653  0.80711027
   0.66422842  0.54923854  0.95358447
   0.72276414  0.63539627  0.00225914
   0.59752030  0.63908592  0.99237636
   0.50498287  0.51797581  0.08896640
   0.52392906  0.62939587  0.12958316
   0.55572892  0.53182847  0.19560575
   0.68119937  0.47080624  0.19607425
   0.05611551  0.88246815  0.80872840
   0.95008201  0.83701768  0.78835869
   0.04285878  0.76092091  0.80479049
   0.99346745  0.90856676  0.03667349
   0.90045690  0.91667297  0.96539964
   0.00637648  0.96305409  0.92629668
   0.02937317  0.77038655  0.04550091
   0.05228384  0.33922729  0.41225766
   0.11224879  0.43880361  0.38035189
   0.10541209  0.34948915  0.30494792
   0.96137019  0.31346105  0.22588937
   0.87741910  0.38865283  0.25047582
   0.90201086  0.31273272  0.33019926
   0.91163994  0.51096497  0.24776839
   0.06709136  0.15443584  0.88510588
   0.11706704  0.09762281  0.97102362
   0.11073545  0.04393768  0.86428366
   0.29103300  0.18857424  0.77062539
   0.19444708  0.13613609  0.74028344
   0.28334740  0.06545612  0.78566068
   0.33902934  0.17788745  0.92389852
   0.28661360  0.50603860  0.04362878
   0.18042468  0.54894720  0.07962321
   0.18502975  0.49399009  0.97951132
   0.10073332  0.35097981  0.99388919
   0.05927443  0.43396341  0.06057738
   0.07264181  0.32218345  0.10442164
   0.20428998  0.32066677  0.19354938
   0.77076426  0.27802227  0.44669855
   0.69143937  0.20053145  0.50799371
   0.67471742  0.23735312  0.39910061
   0.68361890  0.04714397  0.45951735
   0.75043797  0.00589770  0.37419701
   0.66363300  0.08161855  0.34348282
   0.87866439  0.05904322  0.36044950
   0.17817813  0.76121484  0.13493989
   0.19270098  0.68027462  0.22457695
   0.28115281  0.74807990  0.18501965
   0.31561495  0.78778601  0.32716471
   0.23866448  0.83996298  0.39650922
   0.29830994  0.90398094  0.30921088
   0.11232641  0.90803196  0.32453083
   0.94357734  0.10110684  0.85097508
   0.91374753  0.00240155  0.79145179
   0.82722520  0.06312001  0.85321304
   0.73584325  0.09126817  0.71835930
   0.78047422  0.19543772  0.66560152
   0.76026278  0.18764729  0.77457137
   0.91602449  0.15768057  0.61051095
   0.05658295  0.43253021  0.86385295
   0.09879142  0.46759677  0.75545710
   0.14094192  0.36607642  0.80463259
   0.01377631  0.42457756  0.63516125
   0.91671947  0.36322611  0.64829661
   0.01980863  0.30401056  0.62999220
   0.88941841  0.28356326  0.77609725
   0.53608259  0.53418000  0.57924430
   0.43628773  0.47785414  0.59014151
   0.44613844  0.57684018  0.51460003
   0.44793300  0.41388420  0.33993727
   0.51170587  0.51801241  0.34018661
   0.39431653  0.50517520  0.38374334
   0.52300921  0.33756569  0.41323370
   0.13117883  0.24031093  0.55241682
   0.15692941  0.34009695  0.61522673
   0.16501008  0.23248482  0.66375694
   0.23566723  0.21185824  0.43904930
   0.30122187  0.14460994  0.50948921
   0.35026691  0.24492987  0.45992230
   0.39647892  0.29441778  0.60343042
   0.75648673  0.28317196  0.15551334
   0.81748959  0.20461926  0.22678964
   0.71464613  0.18510271  0.16495807
   0.74555416  0.19062683  0.97093825
   0.83525308  0.27370138  0.95318303
   0.74586368  0.29997870  0.02532950
   0.89898540  0.14367133  0.98444042
   0.55208224  0.11176812  0.22456467
   0.46992698  0.09607175  0.13891787
   0.43474114  0.12524669  0.25213207
   0.45605946  0.32299406  0.08589378
   0.36639714  0.24861037  0.11449779
   0.45604812  0.21666717  0.03900120
   0.53124654  0.35419199  0.18607516
   0.23540940  0.89023996  0.97674570
   0.24511973  0.97517667  0.05559312
   0.31228997  0.88212375  0.07175774
   0.47647011  0.02226119  0.95777965
   0.45416204  0.97790890  0.06899275
   0.39443275  0.07131233  0.03082405
   0.41827179  0.97394185  0.84323983
   0.42142234  0.17096752  0.67703678
   0.38198186  0.05836929  0.68620346
   0.44086415  0.09465693  0.58700497
   0.53327417  0.95955414  0.61029171
   0.62175916  0.96737401  0.69522717
   0.61438601  0.04365531  0.60193514
   0.60477682  0.06224252  0.80993083
   0.05133429  0.08133040  0.32765314
   0.05709106  0.19030689  0.28687859
   0.14054185  0.14658514  0.36341541
   0.04465992  0.03861141  0.17103391
   0.14511436  0.05282947  0.10108638
   0.06996967  0.14182472  0.12068117
   0.27554592  0.05942042  0.18077059
   0.28427079  0.47806386  0.50839982
   0.17507087  0.46065653  0.56199181
   0.25307914  0.52653484  0.60675601
   0.27252205  0.69012360  0.48951786
   0.20006339  0.67702409  0.39082560
   0.28607183  0.59880949  0.41086297
   0.07898338  0.66096236  0.47691848
   0.66163356  0.75553291  0.90074432
   0.59157471  0.84676033  0.85674627
   0.54697102  0.76508098  0.92987503
   0.66156543  0.99229535  0.93996567
   0.75360188  0.91854607  0.93850142
   0.70762015  0.95212178  0.04208953
   0.61729124  0.88378929  0.12485304
   0.81570151  0.53672456  0.61019545
   0.90434453  0.59790667  0.56290957
   0.80776239  0.81750696  0.62382253
   0.90047581  0.76045960  0.57639188
   0.66645552  0.60969131  0.62367325
   0.68171770  0.67746976  0.52244273
   0.75681096  0.61380973  0.72934164
   0.77563017  0.73125902  0.74259481
   0.62218759  0.80550812  0.58863124
   0.67657354  0.78714631  0.68811531
   0.73198227  0.82374378  0.48409191
   0.79095218  0.74137986  0.43632296
   0.86810795  0.57517675  0.42351667
   0.75869005  0.62014892  0.44333715
   0.94048260  0.70600799  0.71929976
   0.91957705  0.58906202  0.71632695
   0.71411199  0.45552777  0.50015190
   0.81589681  0.42378682  0.44364679
   0.76769909  0.48591211  0.30058515
   0.65950601  0.51299743  0.34535836
   0.69993661  0.40130671  0.33603078
   0.85119262  0.89195898  0.39240370
   0.86284514  0.91758675  0.50386115
   0.00315323  0.82161028  0.51313850
   0.00353367  0.87822968  0.40974681
   0.97895908  0.76514609  0.41392391
   0.58754969  0.66403156  0.72919089
   0.52240870  0.67087574  0.62806343
   0.52439479  0.83804275  0.73862665
   0.48243171  0.74916146  0.78760237
   0.43451255  0.79134412  0.68542236
   0.86182166  0.69684411  0.87998155
   0.96238357  0.64393253  0.87542656
   0.78461646  0.54731693  0.85140151
   0.85657363  0.52991473  0.94489814
   0.88671384  0.49963798  0.82976636
   0.86921454  0.84446719  0.27198100
   0.78478352  0.91823225  0.23566955
   0.79640832  0.66298981  0.11373288
   0.90067284  0.72654718  0.13184331
   0.88132270  0.88867766  0.16630607
   0.81607457  0.75495897  0.04746334
   0.68360317  0.69644122  0.20253736
   0.21919927  0.73901436  0.84166154
   0.25130981  0.66773621  0.92260241
   0.17912370  0.63270245  0.83724797
   0.42446160  0.59740040  0.86934742
   0.39166878  0.54488132  0.76267645
   0.33045281  0.53210869  0.86619666
   0.36953848  0.63268024  0.67140035
   0.49767035  0.85570117  0.34944960
   0.20030864  0.96014535  0.59030244
   0.53102643  0.37382467  0.84588363
   0.64237351  0.55830611  0.09624793
   0.99882557  0.82412220  0.92272130
   0.98632595  0.42222004  0.31488741
   0.21286315  0.14530589  0.87818855
   0.18996443  0.40904075  0.09077970
   0.77613582  0.13717095  0.41124495
   0.19155112  0.81614999  0.26527467
   0.86567880  0.11398984  0.73096895
   0.00580028  0.36194506  0.75775063
   0.49566537  0.45842990  0.46531966
   0.26754492  0.26411297  0.57151776
   0.83112272  0.19967517  0.08086654
   0.49329785  0.22518802  0.17795642
   0.35788355  0.96002612  0.96614121
   0.52074495  0.06817103  0.70168684
   0.15057071  0.10504572  0.22935730
   0.18556148  0.58136894  0.49522292
   0.62832325  0.86056204  0.99015325
   0.79289899  0.67808101  0.61054604
   0.78646286  0.78428846  0.18113418
   0.31185474  0.64706144  0.79633312
   0.55337097  0.71919097  0.39918734
   0.34795854  0.94048207  0.55196545
   0.39850478  0.38382448  0.92328833
   0.77384361  0.48005876  0.10080413
   0.06576773  0.68416403  0.94737635
   0.01149344  0.57417313  0.31981163
   0.25077876  0.15596093  0.02897789
   0.29645921  0.42439117  0.20428146
   0.92645691  0.18553991  0.39540745
   0.04445786  0.82917206  0.23158474
   0.01203648  0.09059653  0.68178146
   0.97957526  0.27157956  0.87831562
   0.55813350  0.33887998  0.54657000
   0.30887617  0.36358886  0.67730946
   0.90153289  0.06498732  0.09772370
   0.59433758  0.27787370  0.28200273
   0.30154457  0.91077638  0.83469118
   0.49195950  0.13397856  0.83588716
   0.27130667  0.08218059  0.31343452
   0.04611055  0.56278776  0.56562190
   0.54356997  0.77675417  0.08491545
   0.69589612  0.79579139  0.29862701
   0.25828015  0.71263624  0.66187818
Direct configuration=   150
   0.49307101  0.88993798  0.44122249
   0.48335782  0.91461062  0.27956193
   0.52056786  0.76510226  0.34114067
   0.18383498  0.02900146  0.52196074
   0.13550912  0.94053758  0.65990499
   0.28944787  0.93162102  0.60567000
   0.58217874  0.42616186  0.90112706
   0.57209995  0.34986215  0.76189930
   0.44849505  0.35307433  0.87393278
   0.65856260  0.60872855  0.00869192
   0.54988113  0.57505332  0.13410357
   0.69168694  0.48818595  0.11626691
   0.01997124  0.83225202  0.83323150
   0.97351655  0.90312640  0.97434148
   0.03621436  0.75196567  0.97042756
   0.08393279  0.41579535  0.35019453
   0.94696724  0.35258361  0.27343637
   0.97058892  0.50941863  0.29453826
   0.12074362  0.11971230  0.89876198
   0.24030882  0.13820048  0.79009023
   0.26471717  0.17914487  0.94577863
   0.19725571  0.47736786  0.05089534
   0.10262419  0.34368905  0.10141925
   0.23579679  0.38324723  0.17547146
   0.74839821  0.21929906  0.44463824
   0.70379526  0.06534990  0.37624867
   0.85841349  0.11331413  0.39668009
   0.21938659  0.72988084  0.21344720
   0.27435119  0.83581159  0.32976857
   0.12444091  0.85290883  0.27359214
   0.89883049  0.09435977  0.81783778
   0.78204865  0.15275233  0.71039414
   0.92068096  0.10380331  0.65623510
   0.05321729  0.41905705  0.81882413
   0.98948216  0.37788795  0.67109142
   0.96609171  0.28837896  0.80585223
   0.47671859  0.50700632  0.53761347
   0.43279126  0.46105948  0.38569579
   0.52672204  0.36398655  0.48424526
   0.17957433  0.26176191  0.58126202
   0.28687633  0.23024363  0.46084253
   0.33333956  0.30697769  0.59165998
   0.79078913  0.21711564  0.15452495
   0.81596716  0.26079144  0.00322426
   0.88575472  0.12539302  0.06533768
   0.51284984  0.14456397  0.20919844
   0.44837458  0.25266472  0.09759589
   0.55014145  0.30021290  0.21797700
   0.29532210  0.91451659  0.02455627
   0.41825935  0.01497281  0.00115854
   0.35236926  0.94047701  0.87302128
   0.43220954  0.09243055  0.66069333
   0.57471891  0.01309506  0.64298732
   0.54069517  0.10289975  0.77813955
   0.09674547  0.13390854  0.30881674
   0.11277518  0.11273794  0.14674275
   0.24334956  0.08218507  0.23598755
   0.21241729  0.50480592  0.54203210
   0.22922079  0.63242984  0.43389193
   0.09291831  0.60272617  0.51628773
   0.61134567  0.81068172  0.91280926
   0.69746765  0.93803838  0.98057945
   0.59139755  0.85453490  0.07468586
   0.83894354  0.75870044  0.58003304
   0.68155128  0.67459971  0.58203906
   0.79643439  0.65822294  0.70186429
   0.82299542  0.59135891  0.56211167
   0.80545170  0.57753528  0.46203603
   0.81220090  0.80478726  0.49330022
   0.62356465  0.74353860  0.63577186
   0.89142170  0.65002400  0.73355616
   0.54040908  0.70938573  0.69118774
   0.88959446  0.86816027  0.46219876
   0.77854137  0.47582629  0.45674892
   0.88919867  0.63889375  0.83056895
   0.73617339  0.46297515  0.36566539
   0.97587447  0.81499914  0.44952482
   0.47841013  0.78604409  0.70952971
   0.85584657  0.55631012  0.87879301
   0.84245278  0.72249257  0.12497128
   0.84043606  0.86519929  0.20248675
   0.71463236  0.75999574  0.21817737
   0.23893016  0.66234523  0.84325683
   0.38095092  0.57452057  0.82603072
   0.30156760  0.64098843  0.69904494
   0.76286661  0.90033972  0.78186654
   0.45441809  0.83863084  0.47907918
   0.44660946  0.94519731  0.42950166
   0.55849443  0.90262718  0.47186763
   0.42956555  0.95857029  0.29794075
   0.47077092  0.88082942  0.21532916
   0.53877949  0.96192294  0.26259065
   0.52940170  0.74515814  0.27243765
   0.11467336  0.00989330  0.50181399
   0.23232932  0.00940173  0.47118969
   0.18663678  0.10280941  0.53646767
   0.16502642  0.88513535  0.70066064
   0.07959716  0.91176479  0.62397318
   0.10728034  0.99869021  0.69841944
   0.29099669  0.88844156  0.66656909
   0.55634663  0.42106283  0.97056923
   0.58001357  0.49694346  0.87960747
   0.65052736  0.40083541  0.90136826
   0.59457489  0.41047788  0.72416957
   0.52338731  0.32179503  0.71353817
   0.62865252  0.30794734  0.76398243
   0.41086516  0.30333895  0.83588555
   0.72827825  0.59482264  0.98767143
   0.65119271  0.67719524  0.02956604
   0.60916612  0.59653350  0.95202960
   0.49501769  0.55161954  0.09109282
   0.54365332  0.64796673  0.14194633
   0.54569501  0.53756546  0.19665040
   0.67285498  0.45121080  0.17747067
   0.05946939  0.89022643  0.81276726
   0.95760571  0.84514242  0.79744972
   0.05506583  0.77204176  0.81480422
   0.94338935  0.87721305  0.03575287
   0.92201845  0.93678825  0.93073182
   0.02542776  0.95056966  0.98447640
   0.02437281  0.76205460  0.04573328