unknown system                          
           1
    15.000000    0.000000    0.000000
     0.000000   15.000000    0.000000
     0.000000    0.000000   15.000000
   C    H    N    O 
  85 197  24  23
Direct configuration=    50
   0.25228208  0.80269611  0.06969373
   0.26557161  0.66780954  0.15705045
   0.35458929  0.79984953  0.19324052
   0.89739165  0.71430452  0.55584829
   0.83624813  0.57458384  0.49307400
   0.92615769  0.67385461  0.39916203
   0.43546085  0.25949135  0.70478628
   0.44943394  0.08739908  0.66394408
   0.32278809  0.14454115  0.75795739
   0.40638630  0.35674317  0.11019550
   0.32991876  0.27710441  0.00317781
   0.25555554  0.39916692  0.07642586
   0.77846331  0.87278951  0.79066177
   0.84751284  0.74589642  0.88158055
   0.73355882  0.84331774  0.93880582
   0.70195057  0.08384045  0.77458193
   0.62553675  0.21625236  0.84555555
   0.78008805  0.17896449  0.88655742
   0.04877013  0.08823707  0.46525145
   0.11837449  0.08420796  0.61255824
   0.96848274  0.03682815  0.59140859
   0.87753594  0.61753987  0.12816183
   0.99415394  0.62406130  0.01409322
   0.03192394  0.55208065  0.15578298
   0.61439614  0.01716406  0.11390090
   0.49388936  0.06262841  0.22764131
   0.55599097  0.16544787  0.11207273
   0.73708015  0.81325318  0.30908410
   0.80897157  0.91098675  0.41273898
   0.84769752  0.89624002  0.25087954
   0.61780457  0.92197189  0.64407033
   0.47243058  0.84568763  0.66100412
   0.58923443  0.77646807  0.57622105
   0.74965847  0.18135577  0.55231697
   0.77836935  0.11267760  0.40164395
   0.62706735  0.14581707  0.45101119
   0.16155600  0.33701454  0.74789531
   0.17544872  0.41340633  0.89299549
   0.13859384  0.49413304  0.75115997
   0.84549154  0.18764360  0.12358100
   0.96776049  0.29296791  0.09311608
   0.97037682  0.20141628  0.22636529
   0.34066149  0.88997895  0.88208304
   0.28968389  0.00573887  0.00191159
   0.42124951  0.02584387  0.90290464
   0.16476813  0.91320547  0.34302540
   0.07078471  0.86891819  0.21180349
   0.13980608  0.01530848  0.21442992
   0.10982091  0.71281421  0.71327833
   0.12910814  0.86879330  0.65529567
   0.98415119  0.80665089  0.69732945
   0.37756438  0.03225255  0.40811178
   0.47150133  0.89964041  0.41666891
   0.33031756  0.90585268  0.49057400
   0.02027696  0.03322609  0.94376498
   0.90264346  0.94112943  0.01537245
   0.02560726  0.87305438  0.92729242
   0.61658022  0.37619153  0.17623884
   0.65513791  0.41080554  0.01816993
   0.77407383  0.42123736  0.13943228
   0.51859241  0.70948969  0.96357979
   0.49461010  0.64264275  0.11944813
   0.63478936  0.62927332  0.04041130
   0.46290284  0.51348447  0.42795690
   0.45755324  0.54141032  0.58373105
   0.57719349  0.44688925  0.52382002
   0.41670682  0.38549027  0.50590631
   0.31752426  0.38914064  0.50604248
   0.51695240  0.59700274  0.42042700
   0.45742680  0.50899330  0.67906964
   0.62822168  0.41768905  0.43879583
   0.42254788  0.58043649  0.74261746
   0.48478571  0.64441961  0.33171890
   0.28712336  0.29395842  0.50628060
   0.71811303  0.38575080  0.47567778
   0.18752964  0.27386834  0.49671019
   0.55662888  0.71619860  0.30660973
   0.41215002  0.52854851  0.83166320
   0.76910780  0.33148586  0.40872751
   0.66582640  0.55740969  0.79429883
   0.75060492  0.43612783  0.72610368
   0.80183723  0.49552677  0.86850267
   0.23952157  0.65436968  0.39401670
   0.15210215  0.70230028  0.51802558
   0.15893781  0.54214636  0.45906901
   0.26695086  0.87453019  0.07775337
   0.17799214  0.79481691  0.06259712
   0.29188932  0.78420270  0.00838097
   0.19707210  0.64994974  0.15886127
   0.30187123  0.63808254  0.21392050
   0.29477562  0.63122249  0.09896946
   0.37106765  0.75740606  0.25310683
   0.83498461  0.74534046  0.57810577
   0.93959614  0.77021702  0.53846718
   0.92396096  0.67570287  0.61002051
   0.76359007  0.57928940  0.48854161
   0.85126970  0.54998165  0.56099047
   0.86134800  0.53097493  0.44050769
   0.92255993  0.61132575  0.36071743
   0.41718133  0.28714624  0.77079332
   0.39597887  0.29428942  0.65432586
   0.50598236  0.26937727  0.68834693
   0.51110980  0.11790591  0.63909334
   0.41214878  0.05837880  0.61120320
   0.46798860  0.04127847  0.71720990
   0.28992612  0.08190529  0.73159113
   0.46279869  0.31805024  0.08334935
   0.38693487  0.32664672  0.17463491
   0.42655511  0.42475040  0.12094757
   0.27494621  0.26610096  0.95763875
   0.32632952  0.21977513  0.04901151
   0.39426710  0.26890121  0.96683866
   0.21038260  0.35103120  0.09685681
   0.72627483  0.91689765  0.80389475
   0.77866516  0.83568380  0.72822099
   0.84160555  0.91652388  0.79870256
   0.89567290  0.73796020  0.82860133
   0.81631837  0.68325565  0.89136784
   0.89202555  0.76428603  0.93577429
   0.74600552  0.80396894  0.00191795
   0.71657833  0.09096571  0.70379144
   0.63316057  0.05615490  0.78451841
   0.74462807  0.03332213  0.80575741
   0.62989783  0.28930437  0.84847281
   0.60417716  0.19416717  0.91122750
   0.57284959  0.20035908  0.80064821
   0.78028491  0.24614970  0.90985384
   0.05138618  0.15970707  0.44601147
   0.99171419  0.05910467  0.43026256
   0.10999956  0.05614881  0.44086290
   0.17201222  0.04286279  0.58209811
   0.10529497  0.06179766  0.67984228
   0.14166691  0.15168501  0.61297317
   0.97303081  0.02994841  0.66692663
   0.83506621  0.58137304  0.08015832
   0.86162978  0.68826341  0.12517210
   0.86924866  0.58677956  0.19192177
   0.06380778  0.64195552  0.01003604
   0.95068941  0.67978487  0.99058706
   0.98318535  0.56811520  0.96769129
   0.09530257  0.55069545  0.11932629
   0.67338999  0.00306173  0.15241493
   0.64421775  0.04418364  0.05369868
   0.57815127  0.95587750  0.09494405
   0.52883795  0.06690366  0.29113158
   0.46298200  0.99491358  0.22341083
   0.43496086  0.10589535  0.22087200
   0.50806294  0.21651437  0.14110489
   0.68176806  0.83708442  0.27531052
   0.71959565  0.78346918  0.37342476
   0.76103664  0.75854908  0.26284235
   0.80961446  0.85554488  0.46099600
   0.74979198  0.95113784  0.42015206
   0.87470616  0.94371363  0.42080223
   0.90142706  0.95025578  0.25781574
   0.59620286  0.94854168  0.70874664
   0.60497639  0.97245607  0.59099316
   0.68672054  0.90266197  0.64711663
   0.42575041  0.87223383  0.61353059
   0.47233148  0.88366435  0.72308801
   0.44767999  0.77729681  0.67650112
   0.53533981  0.72466863  0.56529839
   0.69866584  0.22077402  0.58817099
   0.81274398  0.22133732  0.54711177
   0.76008785  0.12174898  0.59585027
   0.82154908  0.06531319  0.43540806
   0.82363284  0.16107961  0.37352717
   0.74643986  0.08237275  0.34418728
   0.61472822  0.10846776  0.38844153
   0.09786055  0.29784782  0.74688919
   0.22125833  0.30353516  0.77281523
   0.16858975  0.36103161  0.67938839
   0.24327865  0.42166713  0.89932493
   0.15741095  0.34533064  0.91368065
   0.14210528  0.45707440  0.94184736
   0.12097538  0.54943808  0.79784357
   0.80431976  0.17294248  0.18433837
   0.85274148  0.12784595  0.08068350
   0.80532603  0.23691077  0.08927940
   0.93075445  0.35500179  0.07258911
   0.97894109  0.26458007  0.02517589
   0.03009167  0.31988993  0.12255562
   0.03096028  0.23882358  0.23907726
   0.34449924  0.90617507  0.80820898
   0.27422952  0.86048688  0.89017508
   0.39247968  0.84200777  0.89512321
   0.30904940  0.99577041  0.07309415
   0.22781372  0.96971655  0.98763222
   0.28518084  0.07828757  0.98955049
   0.42947865  0.08764727  0.93768189
   0.22788146  0.95057605  0.35885646
   0.17159346  0.84303224  0.34747956
   0.12379578  0.93357969  0.40090149
   0.02332975  0.83185363  0.25332554
   0.11853825  0.81616207  0.19042255
   0.03407673  0.89590388  0.15151880
   0.10055387  0.02149144  0.15225078
   0.17607450  0.69793398  0.67955833
   0.06899364  0.65900735  0.69202895
   0.11447632  0.71470829  0.78666981
   0.15673421  0.86755976  0.58600061
   0.18282155  0.87059997  0.70658808
   0.09403576  0.93295433  0.66904948
   0.94766338  0.86769903  0.67452504
   0.43733153  0.07188782  0.42708414
   0.31592280  0.05440712  0.43666465
   0.37562283  0.03053142  0.33527309
   0.52906946  0.93866880  0.44072022
   0.47658473  0.88793401  0.34377944
   0.47836942  0.83747247  0.45525078
   0.34709468  0.83722893  0.50877428
   0.97782078  0.06234592  0.89248791
   0.08718942  0.02944492  0.91931949
   0.01917981  0.08248196  0.99916062
   0.87915321  0.87266182  0.02102425
   0.85112092  0.98302450  0.98389762
   0.91731342  0.96427837  0.08569234
   0.99552398  0.81014564  0.94401832
   0.58189246  0.44352854  0.19959492
   0.64332428  0.33869755  0.23643019
   0.56629880  0.33351164  0.14442740
   0.71540353  0.42816694  0.97820826
   0.60748295  0.46692119  0.01576473
   0.62607981  0.35153300  0.98750147
   0.81495943  0.43970177  0.07873779
   0.57901330  0.72337011  0.92578198
   0.48364053  0.77168732  0.97526707
   0.47619754  0.66170743  0.92524838
   0.43367063  0.67748296  0.11580448
   0.53322031  0.66147455  0.17738342
   0.46984089  0.57244942  0.11442599
   0.64069716  0.60204422  0.10790971
   0.43803221  0.33451829  0.55275851
   0.43597092  0.35656610  0.44380994
   0.48493930  0.46831921  0.37546717
   0.39350718  0.52734059  0.42232701
   0.39089265  0.56628002  0.56865873
   0.50972669  0.58913732  0.57960593
   0.58112695  0.39517603  0.57182977
   0.60849499  0.50564110  0.54675167
   0.51952408  0.48088753  0.69903704
   0.41019720  0.45540763  0.68133017
   0.58724642  0.58837288  0.42122044
   0.50036010  0.64353276  0.47056255
   0.29174636  0.41886119  0.44425293
   0.29494694  0.42736818  0.56133598
   0.63226747  0.47192774  0.39256628
   0.59373484  0.36260005  0.41086100
   0.31298059  0.25900373  0.56356908
   0.31786056  0.26368260  0.44914946
   0.16906307  0.23644182  0.55395943
   0.17736569  0.23439427  0.43995426
   0.14889888  0.33370439  0.49650493
   0.47542224  0.58774155  0.28276798
   0.42090036  0.67115979  0.34464036
   0.52157369  0.77225714  0.27412898
   0.60954147  0.67972522  0.26934185
   0.58557620  0.75180049  0.36265298
   0.35636426  0.60015576  0.71923722
   0.47322721  0.63268263  0.74546560
   0.47708104  0.51590046  0.85461919
   0.38459880  0.46393013  0.81829311
   0.37116385  0.56486072  0.88003051
   0.70571218  0.34739690  0.53270256
   0.75979685  0.44626505  0.49888287
   0.79763129  0.37188603  0.35427390
   0.72412798  0.28104708  0.37906386
   0.82407009  0.29483535  0.43607684
   0.79528148  0.47129611  0.67694681
   0.68794519  0.41323648  0.69812637
   0.64108004  0.58276007  0.85900588
   0.60884530  0.51951184  0.76544497
   0.78926735  0.37934611  0.74658045
   0.68334456  0.61509829  0.75245106
   0.79929202  0.55942342  0.90207828
   0.21209682  0.71627870  0.36190377
   0.22930910  0.59679217  0.34775352
   0.31171230  0.65173635  0.40464258
   0.20051659  0.72535639  0.56850622
   0.09016060  0.67971902  0.54953162
   0.13897874  0.75529604  0.47006400
   0.10950380  0.53523422  0.51040355
   0.28470140  0.76254523  0.14943954
   0.87832332  0.66012923  0.47841954
   0.39914152  0.16622108  0.70767311
   0.33505103  0.35821852  0.05044158
   0.77924985  0.81223172  0.86912345
   0.71045754  0.16641223  0.82508474
   0.03922720  0.07684952  0.55696438
   0.96999646  0.59934270  0.10313815
   0.55572656  0.08343424  0.15141669
   0.80293320  0.87773385  0.32514317
   0.56316451  0.84725909  0.62357802
   0.71708802  0.14908926  0.46580867
   0.14038482  0.41530719  0.80112688
   0.92365656  0.23118217  0.15390478
   0.35468741  0.97156400  0.93253942
   0.12076495  0.93918043  0.25897196
   0.07170238  0.79563263  0.67448063
   0.38998953  0.94394068  0.43950633
   0.98555866  0.94604592  0.96286615
   0.68891514  0.39380073  0.11287829
   0.55397172  0.67060332  0.04382975
   0.47699874  0.47148005  0.51496644
   0.73809754  0.49211177  0.80266055
   0.18909987  0.62906251  0.46520592
   0.39738424  0.86883531  0.17794696
   0.96953787  0.73955265  0.37595215
   0.29032633  0.18413638  0.82474752
   0.25166464  0.47974459  0.09285497
   0.68138573  0.90624054  0.93553261
   0.83429031  0.12198778  0.91176016
   0.90150183  0.00642477  0.55250389
   0.02022392  0.52605436  0.23231571
   0.60808011  0.19067487  0.05265880
   0.83022509  0.85695424  0.17770781
   0.66281696  0.76526197  0.54191263
   0.56461506  0.17969229  0.49360471
   0.14646262  0.50366880  0.66895887
   0.95254919  0.13922612  0.27739439
   0.46739997  0.00540709  0.83699550
   0.19654617  0.07156218  0.23860186
   0.94694130  0.74496690  0.74245644
   0.26229811  0.94569398  0.51436189
   0.10003183  0.87605893  0.88893556
   0.80383264  0.42396789  0.21513236
   0.69788163  0.61924695  0.98718375
   0.85560497  0.43706908  0.89059128
   0.18364008  0.48390442  0.40438207
Direct configuration=   100
   0.25872377  0.80838720  0.05913853
   0.26421255  0.66173017  0.12435849
   0.35874235  0.78829366  0.18421281
   0.90154790  0.72374509  0.54122066
   0.84418427  0.58169986  0.48460350
   0.93889911  0.67928890  0.39001708
   0.41793681  0.24905310  0.73575197
   0.42381177  0.09909718  0.65096735
   0.31245902  0.14214915  0.77059204
   0.41178541  0.37844895  0.10493228
   0.32154347  0.25471604  0.03539254
   0.25747790  0.39977595  0.07426440
   0.78883141  0.85931831  0.79522883
   0.84876436  0.75804340  0.90599820
   0.72091194  0.84735230  0.94345202
   0.70188045  0.07234669  0.79822870
   0.61783532  0.20709253  0.84228979
   0.77506923  0.17826057  0.89037064
   0.04573986  0.07769645  0.46652514
   0.12075229  0.10468827  0.61485298
   0.96914068  0.04247808  0.60345158
   0.88916001  0.62123069  0.13217220
   0.00174698  0.61340453  0.01105146
   0.03038512  0.54837529  0.15870321
   0.61847797  0.01029708  0.12166498
   0.49643563  0.06135762  0.21938706
   0.55598321  0.16271847  0.10693395
   0.73748106  0.80692812  0.31844846
   0.83719276  0.89211135  0.41643069
   0.85577940  0.90522602  0.25561055
   0.61883273  0.91991510  0.62363965
   0.47648540  0.85327678  0.67266242
   0.58378278  0.76700266  0.58681004
   0.75030745  0.13912037  0.56104602
   0.78815808  0.11031814  0.39966558
   0.64170940  0.15743166  0.44143266
   0.14085162  0.32221039  0.74498013
   0.14613499  0.41766782  0.88407802
   0.14745133  0.48524678  0.73688943
   0.84957743  0.19367090  0.12530704
   0.98051879  0.29251426  0.09397630
   0.97811959  0.19185049  0.22557026
   0.32628377  0.90439782  0.87255271
   0.29710003  0.02189629  0.99353007
   0.43632725  0.01697505  0.90814376
   0.16341304  0.92177030  0.33988418
   0.06693440  0.86633861  0.22048027
   0.14421885  0.01097882  0.20756181
   0.13343848  0.75131331  0.74378523
   0.12006069  0.90715927  0.68813983
   0.98840485  0.82191823  0.69809522
   0.37874655  0.03833618  0.40314129
   0.47123798  0.90122046  0.41115363
   0.33115900  0.90404237  0.48788342
   0.02802440  0.04627586  0.93319881
   0.91640721  0.95988705  0.01579923
   0.03917197  0.88421001  0.94163875
   0.63074879  0.39365960  0.18860886
   0.64281589  0.39825138  0.01614385
   0.76728371  0.43123357  0.12062058
   0.54153076  0.71522019  0.94374833
   0.46188651  0.64171614  0.07208606
   0.62720392  0.61785475  0.03949194
   0.45139860  0.51324337  0.43314241
   0.43317860  0.51842144  0.59933393
   0.57080958  0.43426695  0.53183852
   0.42811832  0.36646733  0.52598707
   0.32512388  0.36252516  0.52578592
   0.50189025  0.60262023  0.41629983
   0.43282819  0.48025912  0.69374878
   0.62421485  0.40191270  0.45204942
   0.41524799  0.55506546  0.76161230
   0.47017036  0.65823630  0.33691922
   0.29001997  0.26734616  0.50738493
   0.71288706  0.36391721  0.48196620
   0.18956528  0.25986758  0.48883687
   0.54537071  0.71498679  0.29958728
   0.38670321  0.53465674  0.85737668
   0.78159291  0.35709392  0.40660521
   0.68139415  0.56445800  0.77370029
   0.77537603  0.44001891  0.71424527
   0.79831812  0.48932897  0.86387024
   0.25613793  0.66246867  0.39937355
   0.14379765  0.70095648  0.51646327
   0.13493974  0.55329024  0.43920978
   0.27014556  0.87928384  0.07379106
   0.18758229  0.79695930  0.05411573
   0.29116364  0.79422304  0.99577639
   0.18849115  0.66335078  0.13418180
   0.29865363  0.61856236  0.17076303
   0.27251730  0.62688318  0.05946152
   0.37969630  0.73686336  0.23233238
   0.83600677  0.74957379  0.56235054
   0.94508300  0.78016537  0.51885495
   0.93500359  0.69289724  0.59883736
   0.77555827  0.60441372  0.50364273
   0.86961766  0.54441952  0.54300874
   0.84329418  0.54130741  0.42328589
   0.92706927  0.62927918  0.33584748
   0.43508709  0.25584325  0.80602721
   0.36536052  0.29914386  0.71918457
   0.47403770  0.26303676  0.69172385
   0.42374997  0.12897873  0.58470673
   0.37861344  0.04039319  0.65261088
   0.49446880  0.08012086  0.66749039
   0.29068382  0.07156430  0.76470653
   0.46150286  0.36857827  0.05235936
   0.43514780  0.33530745  0.16066055
   0.40761172  0.44883000  0.12694765
   0.25554977  0.24461038  0.00502259
   0.32703514  0.20532588  0.09079026
   0.37186288  0.24055494  0.98446646
   0.20470143  0.38076792  0.02433676
   0.72028625  0.87951640  0.77649968
   0.81424286  0.80330876  0.75375886
   0.83084352  0.91643376  0.78513404
   0.90015862  0.74857572  0.85059215
   0.81420476  0.69305726  0.91313087
   0.89234295  0.77732284  0.96004504
   0.72707253  0.80579091  0.00458020
   0.69458867  0.07566783  0.72402826
   0.64955000  0.03208090  0.82654743
   0.76625143  0.04084119  0.81128468
   0.62145374  0.27879929  0.82177881
   0.58062818  0.20313488  0.90661424
   0.57660566  0.17066896  0.79330410
   0.76501601  0.24224145  0.92967738
   0.00106236  0.12894713  0.44142877
   0.02327536  0.01397309  0.43825123
   0.11257049  0.09091298  0.44135409
   0.18096649  0.07391109  0.58853364
   0.11314988  0.08151499  0.68412018
   0.12695342  0.17909683  0.61238749
   0.96962740  0.04667594  0.67571415
   0.84056701  0.61310564  0.07660808
   0.89026870  0.69460093  0.14605219
   0.87236833  0.57984939  0.19082279
   0.07177781  0.59266406  0.99909648
   0.99996077  0.68591950  0.00337729
   0.95497719  0.58224748  0.96241852
   0.09446349  0.52757587  0.12417196
   0.67231277  0.00341672  0.17326169
   0.65319604  0.02682660  0.05954583
   0.58382314  0.94620501  0.11300046
   0.53851143  0.02934286  0.27056293
   0.44418618  0.01512870  0.19924724
   0.46277834  0.12196830  0.24327064
   0.49959438  0.20425224  0.13515011
   0.68610161  0.84263889  0.27509151
   0.71317978  0.79291655  0.38699706
   0.75380579  0.74306871  0.28726308
   0.86172775  0.83026046  0.44398178
   0.78337326  0.92041631  0.45793998
   0.89488509  0.93718287  0.41309361
   0.90453032  0.95915362  0.27406061
   0.62497194  0.95033811  0.69036044
   0.59526261  0.96833164  0.57423556
   0.68528802  0.89594528  0.60297152
   0.43628685  0.90873792  0.64423144
   0.48996218  0.87136188  0.74280289
   0.43615329  0.79190874  0.67030582
   0.53503824  0.71368424  0.59762285
   0.69460245  0.15844543  0.60319105
   0.79823736  0.19298196  0.56292777
   0.77911857  0.07879061  0.58915206
   0.84809443  0.07948205  0.42611690
   0.80976115  0.17129704  0.36510728
   0.76411443  0.06141729  0.34847498
   0.63502434  0.15172439  0.36675698
   0.07542106  0.29699009  0.76543667
   0.19380603  0.27651747  0.76587743
   0.13838034  0.33149502  0.67248554
   0.21834636  0.41964669  0.91069033
   0.10564294  0.36405466  0.91485485
   0.10747568  0.47842915  0.90445995
   0.15689902  0.54629033  0.78169334
   0.82923690  0.13937320  0.16760227
   0.84946826  0.16985554  0.05531681
   0.80002845  0.24800209  0.13655174
   0.93863009  0.35248864  0.09390115
   0.98319020  0.27519302  0.02304527
   0.04383664  0.31257245  0.12125783
   0.04679488  0.21749418  0.23774326
   0.33917080  0.91715308  0.80236958
   0.25620314  0.89171335  0.87970574
   0.36328009  0.84193380  0.89239169
   0.31987530  0.00652019  0.06086870
   0.23002222  0.99198888  0.98489492
   0.29586178  0.09315316  0.98355687
   0.44992695  0.07885972  0.95115238
   0.20306793  0.97953606  0.35929648
   0.20891262  0.86159838  0.33944670
   0.11521864  0.91282535  0.39337255
   0.01997974  0.84631618  0.27327202
   0.09814390  0.80400638  0.19867398
   0.02577700  0.89175734  0.16724987
   0.10862644  0.01102248  0.13893728
   0.20071236  0.76233296  0.71833550
   0.11395958  0.68253188  0.72747667
   0.12947267  0.76484115  0.81543210
   0.18371568  0.89921312  0.65517181
   0.12576506  0.94710847  0.74849048
   0.07716144  0.94542828  0.64053752
   0.96507575  0.88818369  0.67496412
   0.44303420  0.07363837  0.40325380
   0.32857889  0.06975475  0.44623963
   0.35203047  0.03559731  0.33455072
   0.52892149  0.92523189  0.45056849
   0.47746427  0.90586622  0.33932355
   0.46548855  0.82973680  0.42903238
   0.34881424  0.83271171  0.49675389
   0.97918665  0.07725303  0.88831658
   0.09497262  0.03941199  0.90158714
   0.03647132  0.09004572  0.99222188
   0.90782717  0.89858184  0.05267838
   0.85815636  0.97543547  0.97359885
   0.92029613  0.01560198  0.06381004
   0.00976932  0.82448159  0.97679756
   0.58477465  0.44599086  0.20197752
   0.68194061  0.39269882  0.23949212
   0.59720664  0.32986679  0.18681109
   0.69597790  0.39499454  0.96768776
   0.59337727  0.44984418  0.99894581
   0.61374000  0.33040866  0.01699446
   0.80484120  0.43953561  0.05878511
   0.60657301  0.70529274  0.90904567
   0.53486286  0.78537669  0.96657646
   0.48800595  0.70036867  0.89737668
   0.41451374  0.68661852  0.03884868
   0.47700968  0.65565047  0.14416211
   0.43548118  0.57247783  0.06595392
   0.62206305  0.57959419  0.10157771
   0.45375599  0.33513154  0.58554596
   0.45422347  0.32339599  0.47078702
   0.46262619  0.46780307  0.37723099
   0.37866048  0.52879046  0.43834922
   0.36310203  0.53414604  0.58149081
   0.47497752  0.57902117  0.59879422
   0.57215313  0.37601763  0.57801052
   0.60514231  0.49362066  0.56350991
   0.49446641  0.44094322  0.70981216
   0.37568126  0.43112590  0.69657884
   0.57538952  0.59003991  0.40312351
   0.50013768  0.64570968  0.47684421
   0.29954718  0.40736647  0.47379825
   0.29605863  0.38609598  0.59143578
   0.63510911  0.45874051  0.40490563
   0.58339152  0.34864491  0.41743813
   0.30636978  0.22255035  0.56499470
   0.32454997  0.23769213  0.44754638
   0.14448207  0.28979540  0.54079590
   0.17664463  0.18767724  0.48336913
   0.17291788  0.29836681  0.42669692
   0.44922106  0.60882587  0.28621468
   0.40908043  0.69621412  0.35849385
   0.52303007  0.76608111  0.25082609
   0.59732346  0.66677825  0.28567719
   0.56602162  0.75981930  0.35381460
   0.35893727  0.59425377  0.73514542
   0.47730432  0.59439624  0.76083541
   0.44153467  0.49913834  0.89564072
   0.32455783  0.49307261  0.85869580
   0.37379161  0.60070405  0.88578483
   0.70247429  0.29899879  0.51978493
   0.74018819  0.40918200  0.52921521
   0.79035504  0.42161666  0.37342813
   0.76173225  0.31029572  0.35378680
   0.84992856  0.33600539  0.42932609
   0.83042779  0.46211483  0.67096290
   0.71365325  0.42824246  0.67790719
   0.68322481  0.61114511  0.82861907
   0.61380769  0.53642240  0.77216580
   0.79943527  0.37441042  0.74272246
   0.69186877  0.59919016  0.70828461
   0.76890398  0.52913855  0.92115442
   0.24625762  0.71805363  0.35333211
   0.28561367  0.60464288  0.36626197
   0.30589320  0.67936790  0.45232641
   0.20528675  0.73636470  0.53312542
   0.12607923  0.66068580  0.57366808
   0.09081128  0.74984998  0.49869353
   0.06962181  0.55675217  0.47987551
   0.29728085  0.75380378  0.12781885
   0.89653217  0.65927559  0.46789018
   0.38416904  0.16195997  0.71656904
   0.32897171  0.34653941  0.07199991
   0.78470231  0.82593021  0.88613820
   0.70417309  0.16067176  0.83623006
   0.04551002  0.07135567  0.56375289
   0.97626031  0.59240117  0.10165326
   0.55607092  0.07963610  0.14284360
   0.80706168  0.87571255  0.32738248
   0.56204478  0.84288166  0.62945206
   0.72063657  0.12535373  0.46979088
   0.15875173  0.40899605  0.78604858
   0.93947120  0.22112070  0.14772225
   0.35565572  0.97931180  0.92571901
   0.12725764  0.93367052  0.25229008
   0.07995176  0.82174555  0.70198913
   0.39106360  0.94762490  0.43696742
   0.99628648  0.95990179  0.96246511
   0.67948021  0.41441269  0.10700492
   0.54516275  0.65272353  0.01780935
   0.47012246  0.46014235  0.52059589
   0.75324436  0.49840564  0.78650675
   0.17274436  0.63917013  0.44128521
   0.39041125  0.86508241  0.18312618
   0.98532793  0.74896784  0.37832150
   0.27714795  0.19784738  0.82176932
   0.25441596  0.46789177  0.11996356
   0.65943407  0.90310100  0.93808059
   0.84477667  0.13383983  0.89632552
   0.90356242  0.01485207  0.56312987
   0.00941217  0.52812570  0.23754326
   0.60163683  0.19546117  0.04693023
   0.84853215  0.87738049  0.17843565
   0.65197222  0.75595682  0.54274926
   0.58020595  0.19229531  0.48546225
   0.13599582  0.49276762  0.65413372
   0.94093375  0.13897861  0.27744907
   0.48982977  0.99276161  0.85080386
   0.18982491  0.07307684  0.23588241
   0.93514589  0.76191492  0.71340775
   0.26296299  0.93983281  0.51776606
   0.09999490  0.87479617  0.88628707
   0.80424406  0.43652957  0.19511067
   0.69862774  0.62416131  0.99670722
   0.86538388  0.44245867  0.87787052
   0.16029384  0.48273163  0.40231285
Direct configuration=   150
   0.25035893  0.81322586  0.05148892
   0.25453647  0.66038447  0.13311390
   0.34616977  0.78323443  0.18232777
   0.90704836  0.70549192  0.54290751
   0.84619486  0.57768881  0.45789726
   0.94720132  0.68102578  0.38334490
   0.42155125  0.24361297  0.74331437
   0.41085928  0.10477682  0.65141690
   0.30572748  0.13562950  0.77562775
   0.41500120  0.37553655  0.09966478
   0.31989628  0.25105756  0.05452577
   0.24931536  0.38985972  0.10597119
   0.77304003  0.85175111  0.80422049
   0.84374609  0.75407957  0.92562836
   0.71932592  0.85307890  0.95531562
   0.70085034  0.06463237  0.80718105
   0.62298278  0.21264164  0.83394328
   0.77288799  0.18815509  0.88306744
   0.04796180  0.06926776  0.47148388
   0.11420218  0.12403058  0.61935446
   0.96891456  0.05134701  0.61400000
   0.89718357  0.63800819  0.13236760
   0.01345840  0.60221817  0.01435540
   0.02471302  0.54013537  0.16307313
   0.62207714  0.01537276  0.11283697
   0.49555466  0.05205427  0.21833976
   0.55478295  0.15965850  0.10786857
   0.74352897  0.80669037  0.30996127
   0.84202320  0.89478133  0.42066641
   0.85713498  0.90569985  0.25875657
   0.61470372  0.92232240  0.60948577
   0.48599001  0.85339306  0.68600326
   0.58311648  0.76125288  0.59411573
   0.73527169  0.12297828  0.55770436
   0.79196495  0.10919868  0.40276054
   0.63834917  0.16385508  0.43686137
   0.11630408  0.32854499  0.73530600
   0.13871771  0.41582061  0.87545952
   0.14604991  0.48873646  0.72318982
   0.85102017  0.19660333  0.12445903
   0.98818417  0.28946968  0.09799261
   0.98098852  0.18649579  0.22389264
   0.32355127  0.92648871  0.85379457
   0.30014317  0.03127712  0.98449037
   0.44479798  0.01391479  0.90846614
   0.17197227  0.91428080  0.33242823
   0.07518306  0.86268473  0.21234084
   0.14072693  0.01144124  0.20628673
   0.13059282  0.75350881  0.75139907
   0.13936795  0.91184887  0.69940871
   0.99931022  0.82450819  0.70303329
   0.37449074  0.04146185  0.41276674
   0.46606337  0.90359690  0.39867556
   0.33322382  0.90560465  0.49325515
   0.03902246  0.05608309  0.91858703
   0.92598282  0.98419055  0.01886370
   0.04639994  0.89696012  0.95186664
   0.62397507  0.40385864  0.18655059
   0.63802484  0.39218553  0.02182856
   0.76831015  0.43323289  0.11431491
   0.55007010  0.72047411  0.92601973
   0.45740148  0.63388287  0.04564644
   0.62279014  0.61823258  0.03535666
   0.44908846  0.50313575  0.43852664
   0.43172579  0.51112353  0.60338362
   0.56854872  0.45022496  0.53994802
   0.42748387  0.36279302  0.52008654
   0.32594482  0.36597437  0.51532362
   0.50225233  0.58594651  0.43096105
   0.42406211  0.47076040  0.69768384
   0.61589769  0.40196810  0.46145447
   0.40720856  0.55247565  0.75838504
   0.47147375  0.63352685  0.34635432
   0.29114245  0.27050478  0.50290494
   0.71452230  0.37974436  0.48446164
   0.19897936  0.27649665  0.45864330
   0.54265823  0.69490428  0.30812552
   0.38132781  0.52115409  0.85115161
   0.77343623  0.36503044  0.40227320
   0.69625722  0.56808376  0.76230327
   0.78689839  0.43555400  0.70752877
   0.81116401  0.49596323  0.85717101
   0.24953133  0.65241009  0.39829829
   0.13163074  0.70865325  0.50997486
   0.13179330  0.54946798  0.44095989
   0.28317734  0.87867241  0.05742612
   0.17847844  0.82410475  0.06115908
   0.26142779  0.78382853  0.98458614
   0.18642311  0.65978308  0.15532488
   0.30234762  0.62269778  0.17583653
   0.25763341  0.62515683  0.07024964
   0.36037297  0.72938326  0.23202777
   0.84288985  0.73397427  0.56284394
   0.95896168  0.75593556  0.54279736
   0.92461180  0.65432013  0.59249848
   0.78013442  0.59082931  0.48489841
   0.88137433  0.52911781  0.50000356
   0.84262344  0.55301007  0.38893270
   0.94429595  0.62694558  0.33370512
   0.44748753  0.24199966  0.81292699
   0.37801335  0.30112691  0.73699317
   0.47806039  0.25127479  0.69718295
   0.40776612  0.14077126  0.58719754
   0.37530522  0.04049225  0.64666157
   0.48028585  0.09164554  0.66387797
   0.27774764  0.07160095  0.75081133
   0.45471625  0.38171400  0.03843485
   0.45115787  0.33358844  0.14678651
   0.40517759  0.44307404  0.12704872
   0.25486352  0.23635118  0.02413694
   0.33496226  0.20321588  0.10770441
   0.36858847  0.24178795  0.00021227
   0.18787794  0.34707268  0.11970609
   0.71413449  0.89700902  0.79944874
   0.76251246  0.79586855  0.75912927
   0.83593575  0.88622199  0.78420249
   0.91194509  0.76861551  0.90812235
   0.82462203  0.68930101  0.89862922
   0.83666309  0.75118013  0.99948907
   0.73498621  0.83678018  0.02575883
   0.67255128  0.06982405  0.74027594
   0.66065237  0.01357295  0.84313412
   0.77095862  0.04573781  0.79818644