unknown system                          
           1
    15.000000    0.000000    0.000000
     0.000000   15.000000    0.000000
     0.000000    0.000000   15.000000
   C    H    Li   N    O 
  78 182   1  26  26
Direct configuration=    50
   0.22719438  0.76980007  0.08792568
   0.24400397  0.68597719  0.22180635
   0.33898713  0.81111872  0.20647409
   0.86653828  0.70753020  0.54748438
   0.79574532  0.57766412  0.47634200
   0.90237923  0.66887001  0.39454979
   0.36466508  0.30260074  0.68806964
   0.40741396  0.14210705  0.63099902
   0.26447570  0.17561070  0.71105280
   0.40254202  0.37846144  0.13202502
   0.36409000  0.34506448  0.96626657
   0.27284071  0.44231107  0.06073293
   0.78744472  0.86239932  0.79765128
   0.79272013  0.71738458  0.88600769
   0.70959394  0.85093340  0.93870429
   0.67601717  0.11513232  0.78076817
   0.62792281  0.25469035  0.83991759
   0.76430636  0.18982685  0.89522028
   0.04856968  0.09783023  0.48214276
   0.10694521  0.07898237  0.63370967
   0.96050899  0.02109532  0.59066087
   0.88246396  0.62816426  0.13957512
   0.98945234  0.63529903  0.01767186
   0.03153159  0.54900083  0.15415645
   0.60254542  0.00395737  0.10094990
   0.49855156  0.04732253  0.22875424
   0.56087687  0.15488699  0.11577808
   0.72394054  0.77336443  0.31467809
   0.79076832  0.89480935  0.40877207
   0.82529215  0.88461840  0.25215727
   0.59506911  0.93898191  0.63832593
   0.47389632  0.83220542  0.66345149
   0.60263620  0.78238843  0.58288589
   0.73574961  0.20479574  0.54656248
   0.76408597  0.14881977  0.39038418
   0.61442042  0.14298773  0.45022638
   0.32553433  0.34589608  0.42874076
   0.19775864  0.31165148  0.32275899
   0.34779796  0.24048625  0.30536238
   0.27809116  0.49143154  0.80971797
   0.34137617  0.63929418  0.81236137
   0.18778129  0.61027356  0.87181109
   0.83634497  0.16017022  0.13437637
   0.91959668  0.30201641  0.10320630
   0.96149287  0.20882290  0.22986149
   0.54290723  0.48553573  0.76344057
   0.68474752  0.52869915  0.81519518
   0.55456735  0.52579825  0.91508920
   0.37081783  0.86865055  0.86265431
   0.35585308  0.91130675  0.01413113
   0.43742079  0.00574407  0.89063582
   0.16390597  0.90177468  0.34294514
   0.05318203  0.87815581  0.22371408
   0.12599414  0.01837877  0.23594878
   0.10393600  0.64639039  0.66127764
   0.14699081  0.80352312  0.61723578
   0.02452957  0.77299424  0.72051780
   0.36940873  0.03192522  0.40847059
   0.46808031  0.90001156  0.41622138
   0.32694622  0.90140937  0.49368069
   0.99460664  0.02795622  0.92150606
   0.89184453  0.91504137  0.99453150
   0.03098200  0.86877948  0.91646015
   0.61588844  0.35435139  0.24891486
   0.66519009  0.42693247  0.10700348
   0.76924516  0.42068651  0.23391407
   0.98146878  0.28160337  0.73743730
   0.03065171  0.43480135  0.78499261
   0.87661650  0.41200991  0.74337719
   0.02520558  0.43656711  0.40673344
   0.14458414  0.55450675  0.41307430
   0.12589275  0.44401554  0.53142610
   0.50012287  0.68552086  0.07479159
   0.52339024  0.62061111  0.22791871
   0.64661446  0.63972986  0.12556824
   0.24561019  0.12273963  0.95121739
   0.16033527  0.14262410  0.09540271
   0.13001559  0.24081762  0.97681908
   0.21004410  0.84193053  0.07711070
   0.16455856  0.72824227  0.09062843
   0.27073550  0.75006164  0.03006828
   0.17142393  0.68273466  0.22153142
   0.26274133  0.68703293  0.29295822
   0.26754479  0.61920974  0.19522474
   0.36722488  0.78265559  0.27370403
   0.81029874  0.74601530  0.57157203
   0.91329530  0.76039019  0.53150015
   0.89047325  0.67026860  0.60270420
   0.72906315  0.58622828  0.44475180
   0.78777157  0.55359871  0.54521976
   0.82177737  0.51735667  0.44069391
   0.89438989  0.60835931  0.35120729
   0.34838840  0.32783682  0.75428490
   0.31060341  0.32570815  0.64163135
   0.43133778  0.32783473  0.66830910
   0.47873444  0.16148430  0.63983599
   0.38826161  0.14472995  0.56138714
   0.40025595  0.07235812  0.65883532
   0.25670019  0.10273630  0.72029960
   0.44986636  0.43259127  0.13120008
   0.43193448  0.31313971  0.13757210
   0.36219398  0.38549586  0.19374277
   0.29661402  0.33520316  0.93490717
   0.40309541  0.28663795  0.96421199
   0.40833620  0.39216577  0.92736882
   0.23597920  0.43281539  0.99770214
   0.74705935  0.91830756  0.79320176
   0.78997981  0.82213726  0.73627267
   0.85596325  0.88134783  0.82032090
   0.85782226  0.72535323  0.91790304
   0.80593637  0.68422818  0.82056133
   0.75086875  0.66846794  0.91934475
   0.68817448  0.80495669  0.99607995
   0.66779860  0.13966086  0.71043575
   0.61758649  0.07563366  0.80247914
   0.73132155  0.06733534  0.78625749
   0.63471830  0.29919138  0.89741385
   0.56201694  0.22312151  0.84330603
   0.63382059  0.29761117  0.78008656
   0.76358314  0.25658346  0.92776306
   0.11304418  0.13371702  0.47547856
   0.99408941  0.13398958  0.45425278
   0.05905094  0.03875408  0.43465087
   0.16790874  0.04932735  0.60401668
   0.09330766  0.04842559  0.69716861
   0.11335800  0.15071304  0.64253275
   0.95878732  0.00419129  0.66093925
   0.82688238  0.59236693  0.10463783
   0.87682298  0.69867515  0.12840422
   0.87519673  0.61841773  0.20963424
   0.04193388  0.59996099  0.98145128
   0.99941847  0.70699402  0.02143692
   0.92782588  0.63153870  0.97764943
   0.09637946  0.53946677  0.11613242
   0.66887861  0.99172960  0.12434178
   0.60699306  0.02494771  0.02899227
   0.56487725  0.94082587  0.09897156
   0.51216462  0.08535822  0.28744929
   0.50899466  0.97624913  0.24093556
   0.42691620  0.04692596  0.21000258
   0.52033730  0.20971696  0.15016224
   0.65481114  0.79721261  0.30056180
   0.71902934  0.73804642  0.37651449
   0.74006396  0.72963718  0.25698641
   0.82082247  0.85395054  0.45931281
   0.72349621  0.91987606  0.42345441
   0.83911012  0.95100060  0.40297223
   0.86085369  0.94992647  0.27048310
   0.57445495  0.96446509  0.70361946
   0.56251371  0.98406153  0.58813326
   0.66951163  0.93455325  0.63665316
   0.42520352  0.87950380  0.63982212
   0.47995456  0.83981586  0.73544443
   0.44660198  0.76461377  0.65017805
   0.55947151  0.72115053  0.57596167
   0.68138827  0.23359703  0.58713091
   0.79268618  0.25311116  0.53403839
   0.76142216  0.14680045  0.58599836
   0.81375541  0.10278226  0.41540822
   0.79892241  0.21178845  0.37092987
   0.73296640  0.11964321  0.33306258
   0.60805669  0.11690617  0.38282963
   0.28974373  0.32232669  0.48737361
   0.32077199  0.41924426  0.41990106
   0.39827704  0.32616451  0.43968030
   0.15036634  0.30727570  0.37526828
   0.17775247  0.25756218  0.27175354
   0.18813841  0.37800996  0.29466366
   0.31343104  0.20307110  0.25259593
   0.33372651  0.47155092  0.85096277
   0.28871392  0.48459767  0.73812763
   0.21900253  0.45242979  0.83350386
   0.36191103  0.63051710  0.74032365
   0.39761692  0.61325503  0.85234881
   0.32828791  0.70875843  0.82337539
   0.18149845  0.68598984  0.88166401
   0.77529575  0.20283999  0.13223114
   0.82862637  0.10201556  0.17831309
   0.84682077  0.13682248  0.06584180
   0.87572678  0.36137291  0.12125929
   0.91143519  0.28711918  0.03145079
   0.98478912  0.33162078  0.10757094
   0.01401324  0.25598340  0.23690025
   0.56148487  0.52691177  0.70298486
   0.46600059  0.49405757  0.77577614
   0.55230217  0.41128350  0.75228622
   0.70449069  0.46755442  0.77386392
   0.72664099  0.52700297  0.87688465
   0.70616824  0.58437361  0.77697714
   0.60488295  0.53658257  0.97074508
   0.38598001  0.89820292  0.79579545
   0.30525869  0.83848035  0.85967466
   0.42308669  0.81585698  0.87734658
   0.37784164  0.83805161  0.02020077
   0.28507842  0.92591786  0.01601697
   0.39235859  0.95678082  0.05666609
   0.45143153  0.05204525  0.94353609
   0.19662383  0.95768507  0.38009040
   0.21600906  0.85363984  0.33310873
   0.11277220  0.86988396  0.38494571
   0.01496306  0.84488502  0.27499461
   0.08075785  0.82540051  0.17819942
   0.00401019  0.91865341  0.18158554
   0.06731813  0.04478159  0.19705954
   0.17785196  0.63093147  0.65478811
   0.06439021  0.62378042  0.60280249
   0.08115394  0.61362781  0.72232729
   0.11217721  0.82440960  0.55274017
   0.20864547  0.77086422  0.59704417
   0.17122372  0.86653509  0.65181059
   0.02131068  0.84674928  0.72724648
   0.43176227  0.06831585  0.40816843
   0.32077341  0.06450801  0.45461623
   0.34430468  0.02356208  0.34063632
   0.52616909  0.94077810  0.43374209
   0.47776433  0.88526706  0.34512870
   0.47780503  0.83730412  0.45403057
   0.34339117  0.83546393  0.51349520
   0.94744457  0.04751103  0.87424878
   0.06262404  0.02736921  0.88795171
   0.98244224  0.08363442  0.96966486
   0.87995665  0.84674430  0.99551823
   0.83447466  0.94884118  0.96357221
   0.89853526  0.94009297  0.06570323
   0.00376430  0.80293762  0.92369551
   0.55694550  0.40139172  0.24441928
   0.63686809  0.35102046  0.32049476
   0.60437029  0.28618169  0.22499172
   0.72422880  0.42697106  0.06733220
   0.62834908  0.49061261  0.09921315
   0.62591313  0.37155044  0.07217568
   0.81655031  0.45300487  0.18707635
   0.93056545  0.23707922  0.76293529
   0.04359168  0.26342747  0.77062793
   0.99180453  0.26353403  0.66259185
   0.04636896  0.41026183  0.85165308
   0.00258220  0.50026227  0.79489769
   0.08488743  0.43343268  0.73334358
   0.86909288  0.48140091  0.76153394
   0.00894387  0.37688388  0.44369484
   0.02915918  0.42686336  0.33573007
   0.97246463  0.48161681  0.41974417
   0.17333454  0.54050261  0.34654064
   0.20405534  0.57477829  0.45422933
   0.09304176  0.60086971  0.41119211
   0.16880882  0.49334493  0.56605095
   0.54203868  0.72187732  0.02603351
   0.45549649  0.73686140  0.10269634
   0.46877127  0.62869634  0.03986261
   0.48056679  0.67069952  0.26046691
   0.57459975  0.60384059  0.27292042
   0.48210705  0.55885217  0.21939950
   0.68641440  0.61204176  0.18274876
   0.30433864  0.11433609  0.99608069
   0.25345738  0.15326668  0.88514282
   0.24158515  0.05048967  0.94489783
   0.17091288  0.19818300  0.13913071
   0.19635320  0.08468920  0.11145259
   0.08999825  0.12565752  0.10295498
   0.06638337  0.24916181  0.01464914
   0.52513216  0.46789086  0.51433020
   0.27682558  0.75994382  0.17176332
   0.84931114  0.65630880  0.46960977
   0.35424908  0.20113855  0.69389375
   0.34563353  0.38386909  0.06019458
   0.75206684  0.80607332  0.87061412
   0.69225070  0.18531896  0.83919593
   0.03434639  0.06709274  0.57024062
   0.97092087  0.60092701  0.10727324
   0.55689535  0.07165075  0.15178437
   0.78583742  0.84710054  0.32283097
   0.56333572  0.84893592  0.62679858
   0.70122993  0.16820894  0.46150511
   0.29089862  0.29726644  0.34831587
   0.26451186  0.58540071  0.83122469
   0.90651923  0.22222522  0.15890241
   0.58993174  0.52281217  0.83547497
   0.38366589  0.93541223  0.92122043
   0.12338781  0.93161695  0.26019867
   0.09578971  0.74428318  0.67393990
   0.38786151  0.94350169  0.44476912
   0.97822814  0.93525187  0.94869009
   0.68724619  0.40001826  0.19835339
   0.95818798  0.37595557  0.75248087
   0.10709898  0.47141656  0.44795124
   0.55883846  0.65445444  0.14565747
   0.17648974  0.16494963  0.00442417
   0.37237093  0.88164172  0.18461910
   0.95170558  0.73098635  0.37813492
   0.20026669  0.22470998  0.72158517
   0.24290668  0.50059657  0.11590538
   0.68841677  0.92984354  0.93441419
   0.82044118  0.13112479  0.91170062
   0.90044277  0.00192241  0.53583243
   0.02166399  0.52266474  0.23118901
   0.60393846  0.18244264  0.05236480
   0.82207396  0.85323363  0.17596611
   0.67391097  0.78558785  0.54757179
   0.55234851  0.15474007  0.50511352
   0.42864679  0.22813993  0.32028061
   0.13074234  0.55650487  0.89747427
   0.96072871  0.14994826  0.28824271
   0.47421237  0.51832661  0.93568944
   0.46349633  0.01761815  0.81130485
   0.18934228  0.07207967  0.25068106
   0.96801953  0.72286362  0.75843226
   0.25662513  0.93934489  0.51445466
   0.10699753  0.87716941  0.88613884
   0.79130736  0.40501046  0.31178275
   0.80495841  0.37293606  0.72178850
   0.09942461  0.37595607  0.56541005
   0.68346462  0.65802323  0.05334303
   0.14955318  0.29408546  0.91723524
Direct configuration=   100
   0.22954956  0.76801837  0.09855616
   0.23023737  0.66944178  0.23051424
   0.32409429  0.80274469  0.22368153
   0.87395620  0.70378556  0.54939499
   0.77873445  0.58739019  0.47127757
   0.89571454  0.66906593  0.39284578
   0.37360090  0.31018669  0.67347587
   0.42753172  0.14691361  0.65466865
   0.26721073  0.19861539  0.66419718
   0.40303940  0.40423374  0.14306491
   0.39322088  0.37160475  0.98121402
   0.27134612  0.46968291  0.07510774
   0.78756030  0.86979425  0.78665791
   0.80311748  0.73407783  0.88027524
   0.69811737  0.84945633  0.92250824
   0.66902297  0.11352903  0.79434834
   0.61026681  0.26194917  0.85028496
   0.74999809  0.19988727  0.90605278
   0.04873011  0.09004065  0.48274602
   0.09482462  0.06234538  0.64366694
   0.95260330  0.01603828  0.58907469
   0.89344791  0.63530885  0.15596123
   0.98707325  0.64042200  0.02017404
   0.02481274  0.54606700  0.14736387
   0.60799151  0.99694083  0.10041959
   0.50351205  0.04489843  0.22292880
   0.55649712  0.15138787  0.10940103
   0.72380790  0.77196861  0.31854219
   0.78621758  0.88989422  0.41198284
   0.81889638  0.88306273  0.25344020
   0.59495067  0.93701967  0.62373578
   0.47931566  0.83299585  0.67436405
   0.59800921  0.77981534  0.58564354
   0.73846317  0.19548347  0.54100156
   0.77549014  0.15852996  0.38353471
   0.61995632  0.15312935  0.43987031
   0.32538159  0.36343028  0.41550199
   0.19675009  0.29973643  0.33108740
   0.35076516  0.24151101  0.31480014
   0.27057561  0.48603477  0.79548513
   0.32722236  0.64413369  0.80311325
   0.18919339  0.60535608  0.87190376
   0.83774629  0.14855470  0.14304266
   0.89747706  0.29982700  0.10878994
   0.95748247  0.21051820  0.23317918
   0.54028766  0.48438532  0.76052781
   0.69207950  0.53137204  0.81820513
   0.56469609  0.54510000  0.91070610
   0.36524914  0.85302099  0.85571617
   0.45034029  0.87112272  0.99976460
   0.46216900  0.98716323  0.88059708
   0.16530425  0.89416647  0.35350485
   0.03904568  0.87034525  0.24303998
   0.11902541  0.01110514  0.25827197
   0.10058380  0.63812857  0.64321791
   0.15258883  0.79579691  0.61790455
   0.03483387  0.76585011  0.72655938
   0.36812257  0.02713966  0.39861483
   0.46724024  0.89792848  0.41589716
   0.33094421  0.90047661  0.49750891
   0.98655610  0.02347880  0.89459173
   0.89846112  0.92930672  0.98964416
   0.04384817  0.87652631  0.92294567
   0.62670042  0.34110366  0.25318873
   0.67335052  0.40501056  0.10779874
   0.76805015  0.41768247  0.24394670
   0.97087164  0.28368008  0.72938087
   0.02782163  0.42703591  0.79823190
   0.87680724  0.41334531  0.73700928
   0.01450198  0.43556253  0.41556538
   0.13000256  0.55251563  0.40627108
   0.13079956  0.44230281  0.52704652
   0.49854192  0.68527231  0.08455040
   0.52640995  0.61945232  0.23152696
   0.64983023  0.64537090  0.12695848
   0.21723543  0.12600798  0.96742968
   0.16359725  0.18707373  0.11001408
   0.14792610  0.26832585  0.96847886
   0.19647593  0.83301774  0.09797868
   0.18297116  0.71530315  0.08508555
   0.28008797  0.77021537  0.04902047
   0.16208746  0.67647051  0.25765217
   0.27428960  0.65667079  0.28628822
   0.23613878  0.61082970  0.18801002
   0.34848804  0.78405241  0.29031245
   0.81771384  0.74081597  0.57890425
   0.92433990  0.75700875  0.53541113
   0.90011550  0.66100493  0.60560812
   0.71380956  0.61339451  0.44814281
   0.77065250  0.56256400  0.53917117
   0.79038652  0.52538687  0.43607277
   0.86755084  0.62983134  0.33704564
   0.33759456  0.34446625  0.72729293
   0.35721951  0.34219481  0.61083438
   0.44456406  0.31929206  0.69136596
   0.48994963  0.16408687  0.68394302
   0.44024765  0.14409418  0.58136701
   0.40386241  0.08322728  0.68156959
   0.25516424  0.12480962  0.66232844
   0.45024404  0.46148875  0.15266994
   0.43493106  0.33714595  0.14553525
   0.35685020  0.40712823  0.19896977
   0.34357798  0.34550616  0.93143513
   0.42715197  0.31616640  0.02310293
   0.44920993  0.40395564  0.94216641
   0.23296807  0.47972929  0.01222765
   0.73351333  0.92181043  0.77818865
   0.79064839  0.82755494  0.72813393
   0.85329881  0.89984526  0.79919545
   0.87004912  0.74210592  0.91250109
   0.81682526  0.69351900  0.82119252
   0.75845246  0.69194883  0.91555753
   0.68346375  0.80268629  0.97517027
   0.67861245  0.12544845  0.72375894
   0.60068719  0.08551734  0.80142030
   0.71826144  0.06335077  0.81426219
   0.63279585  0.32319806  0.88214148
   0.54941142  0.23551090  0.88246357
   0.59234699  0.28123540  0.78073652
   0.74391695  0.25830907  0.94757659
   0.11368236  0.11999698  0.47841840
   0.99235064  0.13690695  0.45836790
   0.05124211  0.03967109  0.43328064
   0.15701459  0.05090525  0.61003853
   0.08701585  0.00098879  0.68543063
   0.09489394  0.12443960  0.68596321
   0.95162183  0.99309804  0.66058558
   0.82863189  0.61592760  0.12843990
   0.89039301  0.71038315  0.16456591
   0.90158414  0.60458656  0.22313140
   0.05361680  0.62184970  0.00067308
   0.98433388  0.71575183  0.02640842
   0.94043049  0.62140627  0.96644337
   0.08229882  0.52569998  0.10819074
   0.67577098  0.99311073  0.13403529
   0.61475673  0.01184614  0.03023894
   0.58021862  0.92997684  0.10257472
   0.47202160  0.10961671  0.24270142
   0.54907187  0.01495031  0.27452009
   0.45135096  0.99521920  0.21109812
   0.51656588  0.20187909  0.14691556
   0.65185708  0.78773001  0.30906309
   0.72814946  0.72931926  0.38059105
   0.74738552  0.73747837  0.25700505
   0.80329034  0.83855896  0.46238249
   0.72748799  0.92924484  0.43207716
   0.84048706  0.93902734  0.41222525
   0.86457452  0.94070189  0.27149596
   0.57709657  0.96839474  0.68839563
   0.57256905  0.98220026  0.57096471
   0.66659833  0.93136991  0.62044047
   0.41893572  0.87446702  0.66230121
   0.49974414  0.84352399  0.74334783
   0.45686979  0.76292036  0.66801997
   0.56574794  0.71485202  0.59658199
   0.68162792  0.19476321  0.58627212
   0.76511405  0.26118931  0.53300626
   0.78875943  0.14973754  0.56973525
   0.83257117  0.11694257  0.40449759
   0.79854354  0.22497110  0.36613892
   0.74300894  0.12087368  0.32587340
   0.61030353  0.12527581  0.37075265
   0.28316597  0.36032396  0.47620264
   0.33024508  0.43246234  0.39013871
   0.39016991  0.33926226  0.43538982
   0.16186306  0.27339815  0.39263969
   0.18499708  0.25243558  0.27704402
   0.16899194  0.36546639  0.31053839
   0.31539338  0.19389784  0.26851752
   0.33491222  0.46150819  0.82426305
   0.27021303  0.48463014  0.72106902
   0.21759840  0.44612071  0.82399941
   0.34646173  0.63897147  0.73434493
   0.38361160  0.64319802  0.85087081
   0.29127493  0.70904322  0.81242299
   0.18913218  0.67798961  0.88269788
   0.78464689  0.17280706  0.10254016
   0.81565534  0.12591590  0.21051037
   0.86845577  0.08810579  0.11141973
   0.83562140  0.33395656  0.12294294
   0.89615891  0.28798718  0.03681213
   0.95125118  0.35020970  0.12448583
   0.00269347  0.26633683  0.25027302
   0.51732574  0.54618151  0.72802918
   0.48202004  0.45330856  0.78408844
   0.57513148  0.43718538  0.71744582
   0.73249567  0.48169487  0.78692178
   0.71854399  0.55353621  0.88125199
   0.69074536  0.59297049  0.77360085
   0.61497154  0.57854292  0.95185164
   0.34534078  0.89882238  0.80022973
   0.30254012  0.83801520  0.89607308
   0.38845714  0.78926188  0.83551187
   0.50229638  0.82289855  0.99307608
   0.38716466  0.84305850  0.02330888
   0.47507296  0.92685101  0.03446522
   0.49434958  0.02119914  0.94051785
   0.20469047  0.94630418  0.38495983
   0.21466522  0.84521536  0.32407236
   0.12666031  0.85825295  0.40324909
   0.99760084  0.83193138  0.29225239
   0.06979228  0.82274242  0.19813985
   0.99216836  0.90846266  0.20529622
   0.07769820  0.02831879  0.19660457
   0.16890574  0.61938729  0.65388542
   0.07927647  0.62894245  0.57468305
   0.05946990  0.59854326  0.69043207
   0.15610522  0.78713651  0.54759615
   0.22271767  0.79447998  0.64248124
   0.13069004  0.86557636  0.62948380
   0.03915205  0.84068044  0.73118317
   0.42919426  0.07015076  0.40999142
   0.31015694  0.05564752  0.42855597
   0.35675330  0.01872171  0.32638769
   0.52663926  0.93448251  0.43935695
   0.47185041  0.88980514  0.34268100
   0.47247551  0.82759684  0.43692110
   0.35593677  0.83354183  0.51685191
   0.94100988  0.04224170  0.83348683
   0.05407380  0.02949230  0.87338607
   0.96111938  0.07124539  0.94173609
   0.87588296  0.85734534  0.99384607
   0.84425994  0.96825958  0.95674043
   0.90924954  0.95721059  0.05435100
   0.03524745  0.81457049  0.96432934
   0.56065288  0.36664992  0.24540120
   0.64859749  0.33802610  0.32203613
   0.63376690  0.27250694  0.22805664
   0.71221876  0.46169862  0.07654369
   0.60239455  0.41957393  0.10201285
   0.69196615  0.34817937  0.06844660
   0.81193103  0.46148451  0.20335443
   0.90995861  0.24230616  0.73872712
   0.02840265  0.25364123  0.76613830
   0.98866225  0.27648044  0.66181324
   0.05434940  0.38676352  0.85379511
   0.99779891  0.48982930  0.81938922
   0.07957127  0.43371530  0.74757117
   0.88156358  0.48718379  0.75282269
   0.00083626  0.36897913  0.44736060
   0.03075960  0.43107144  0.34299186
   0.94833368  0.47156558  0.42099132
   0.16346788  0.52546253  0.34701930
   0.18128789  0.58137225  0.44776556
   0.07514164  0.60468217  0.39118238
   0.19962490  0.47298298  0.53948301
   0.53418826  0.70572870  0.02368707
   0.46392237  0.74095937  0.11426614
   0.44839813  0.63434146  0.06285910
   0.47599618  0.66900004  0.25154672
   0.58071312  0.61493137  0.28567101
   0.49744183  0.55237208  0.23182733
   0.69001032  0.62164493  0.18258178
   0.28855299  0.12213362  0.98339895
   0.20698619  0.13751261  0.89806344
   0.20641679  0.05765557  0.99093909
   0.12741546  0.24650517  0.13673369
   0.23148172  0.17612314  0.14002547
   0.12478960  0.12537536  0.12990777
   0.13273031  0.32842280  0.00751948
   0.56097242  0.38628321  0.52339504
   0.26533391  0.74792968  0.18689288
   0.85153930  0.65452846  0.46912195
   0.35441308  0.21747573  0.66945624
   0.35073650  0.41938184  0.06156609
   0.75897932  0.81818409  0.86190208
   0.68107164  0.19459512  0.84763684
   0.02816108  0.06164174  0.57293969
   0.96564921  0.60087331  0.10523073
   0.55186715  0.06374749  0.13805456
   0.77284583  0.85378178  0.32471822
   0.55477206  0.85066854  0.61683734
   0.70881958  0.16437549  0.45513267
   0.29268135  0.30308835  0.34802658
   0.25883205  0.57781400  0.82161332
   0.90756193  0.21756384  0.15617496
   0.59893152  0.50536950  0.83591762
   0.42921217  0.90475786  0.90780579
   0.10386415  0.92625603  0.28647198
   0.09143700  0.73504146  0.66224884
   0.38410546  0.93919953  0.43648016
   0.97590849  0.93608531  0.93029632
   0.68956516  0.39495170  0.20370980
   0.95540388  0.37572110  0.75513273
   0.08699013  0.48053192  0.45894060
   0.56064671  0.64611029  0.14477530
   0.17303151  0.19427835  0.01728861
   0.35460991  0.86910063  0.18689776
   0.96004452  0.72099556  0.38202108
   0.20159917  0.24887047  0.66127267
   0.24598029  0.49614418  0.15058712
   0.66552812  0.92660501  0.92495841
   0.81174705  0.14524468  0.90653959
   0.89254121  0.00048985  0.53387434
   0.01397281  0.51615330  0.22494819
   0.59855942  0.18298559  0.04518075
   0.81499905  0.84915565  0.17835174
   0.67155237  0.78378459  0.54775858
   0.56082343  0.16698999  0.49821613
   0.43201727  0.23372846  0.33046957
   0.12963685  0.55695653  0.90322469
   0.95600058  0.14744175  0.28495333
   0.48644198  0.54331548  0.93040127
   0.46271569  0.02157737  0.80425363
   0.16960026  0.06363959  0.29263356
   0.98396696  0.72140746  0.77165185
   0.25979580  0.93079429  0.52489995
   0.11213286  0.87969041  0.87528114
   0.78850585  0.39417713  0.32049378
   0.81046314  0.37745607  0.70452239
   0.10053102  0.38068432  0.57338015
   0.68650286  0.66629749  0.05685795
   0.15120763  0.27135342  0.88534887
Direct configuration=   150
   0.22409359  0.76343894  0.10431074
   0.21449062  0.67426120  0.25017139
   0.31833149  0.79543519  0.23374867
   0.88069285  0.69285526  0.55980406
   0.77452833  0.59372197  0.48116637
   0.90314804  0.66025591  0.39817937
   0.39682055  0.31684002  0.66010437
   0.43066988  0.15631651  0.66997681
   0.27606629  0.20942375  0.63557012
   0.41934247  0.41544030  0.16055785
   0.38328022  0.37803141  0.98672663
   0.27647737  0.45759761  0.08419993
   0.78586811  0.87587897  0.77681850
   0.81192824  0.74124488  0.86999935
   0.69876290  0.85180984  0.90981524
   0.65974971  0.11765275  0.80156833
   0.60028622  0.26118997  0.85273994
   0.74826710  0.21295565  0.90454466
   0.04068936  0.08956943  0.49286419
   0.09060860  0.04622162  0.64530320
   0.93910621  0.00800809  0.59031364
   0.89038193  0.64048565  0.15862677
   0.98030837  0.64082034  0.01932116
   0.01962407  0.54267740  0.14376152
   0.63600130  0.01134322  0.11356219
   0.50317220  0.03901554  0.21620378
   0.54614701  0.14633169  0.09730340
   0.70320756  0.78311945  0.31646956
   0.77670512  0.90290087  0.40558639
   0.81188214  0.88483023  0.25021658
   0.59597358  0.93687070  0.61043507
   0.48411123  0.84146869  0.67951956
   0.59822815  0.77411723  0.58423834
   0.75356301  0.19332700  0.54087883
   0.78133709  0.15365635  0.38225275
   0.63019478  0.16232904  0.43191446
   0.32164760  0.37697959  0.40606395
   0.19615821  0.28900953  0.34145014
   0.35559620  0.24186184  0.32453031
   0.26616338  0.48516408  0.78950492
   0.31269906  0.64145801  0.77308589
   0.18629495  0.60063576  0.87401589
   0.84364761  0.13755696  0.13792467
   0.90452917  0.28859872  0.09823255
   0.94713038  0.21207092  0.23453327
   0.54486865  0.48232123  0.76738660
   0.70056372  0.52318930  0.80582772
   0.57297006  0.55637391  0.90756145
   0.35175423  0.88070457  0.87387485
   0.49272748  0.85646024  0.97917045
   0.48409095  0.97443317  0.85936055
   0.14102051  0.87680879  0.37210841
   0.03778733  0.86522457  0.25096209
   0.10428297  0.01087507  0.27983335
   0.09258737  0.63661162  0.63767166
   0.15315665  0.78818662  0.61555158
   0.04096570  0.75913099  0.72843342
   0.36259540  0.02376007  0.40498590
   0.46249184  0.89222785  0.39945913
   0.33711012  0.89693512  0.50262473
   0.99056524  0.02839482  0.86576669
   0.91790191  0.93842361  0.99739810
   0.04772963  0.88575154  0.92020434
   0.63148007  0.32067534  0.25575534
   0.67959284  0.39947055  0.11734775
   0.76170175  0.41614543  0.25509973
   0.96476170  0.28170723  0.72562666
   0.02289717  0.42069041  0.78848396
   0.86991974  0.41313169  0.73169851
   0.99849398  0.43725641  0.42651378
   0.11769816  0.54890514  0.40027799
   0.12099633  0.45249485  0.53144291
   0.49417238  0.67263355  0.09850965
   0.53568362  0.62048902  0.24952584
   0.65041772  0.64021195  0.13235362
   0.20313484  0.12004244  0.98469899
   0.16999284  0.22878238  0.10661572
   0.15449731  0.27610083  0.95368339
   0.20246941  0.83360810  0.10270898
   0.17049766  0.71560717  0.08893255
   0.28192133  0.75517052  0.05510644
   0.15088708  0.70285511  0.27490199
   0.25665919  0.65908895  0.31049636
   0.20314528  0.61446153  0.21152892
   0.33549657  0.77888313  0.30237035
   0.82519485  0.73085978  0.58867464
   0.93651372  0.73707248  0.54906342
   0.90233099  0.64513925  0.60932494
   0.72321370  0.63093164  0.51770880
   0.78546897  0.52747136  0.51286856
   0.74868572  0.57646820  0.41351616
   0.87758597  0.61479131  0.34509756
   0.33627900  0.35852539  0.64932891
   0.44309124  0.34308267  0.60648294
   0.41830437  0.32963581  0.72886851
   0.44936857  0.15725403  0.74243314
   0.49473724  0.16594213  0.63461552
   0.40225201  0.09183898  0.65458069
   0.26424332  0.13774640  0.62751553
   0.48531576  0.44246677  0.14866508
   0.42743453  0.34580348  0.18226206
   0.38368668  0.45040654  0.21418183
   0.33870469  0.41703016  0.94365471
   0.38483781  0.30686311  0.98291003
   0.44666845  0.40324240  0.97011218
   0.24683536  0.45813054  0.01723027
   0.74419516  0.93809296  0.77885258
   0.77237620  0.83672875  0.71562070
   0.85677566  0.89049778  0.78048927
   0.88012514  0.75265678  0.84981412
   0.79110440  0.68314941  0.82954824
   0.80570315  0.71784119  0.94098781
   0.69136287  0.80881250  0.97173851
   0.68903803  0.12718492  0.73190365
   0.58987504  0.10563838  0.78989882
   0.69250690  0.05793878  0.82731283
   0.62167506  0.32239318  0.88940457
   0.53810826  0.23516544  0.88178095
   0.58516256  0.28007344  0.78379269
   0.74524557  0.28226580  0.93690762
   0.10894483  0.11510863  0.49454213
   0.99307903  0.14026906  0.47935282
   0.04297004  0.04489118  0.43257996
   0.14696544  0.99815373  0.63784414
   0.05839925  0.03461402  0.70928693
   0.11881426  0.11255283  0.64566079
   0.93329339  0.97392814  0.65639717
   0.83950736  0.65840576  0.10952166
   0.90296466  0.70053537  0.19575711
   0.86415715  0.59160996  0.20686021
   0.04035013  0.60876139  0.98763286
   0.98796238  0.71197117  0.01522405
   0.91892004  0.62019273  0.98509296
   0.07622592  0.52803948  0.09591722
   0.69157009  0.02759474  0.15694131
   0.65604699  0.02175265  0.04475903
   0.62241823  0.93933766  0.12302143
   0.43965453  0.07547484  0.21643400
   0.54361506  0.04855899  0.27510198
   0.48971358  0.96712050  0.21201923
   0.48543918  0.17846021  0.11660941
   0.63717591  0.80867147  0.29678686
   0.69858438  0.75386754  0.38244093
   0.72708480  0.73443337  0.27141570
   0.80692854  0.85968336  0.45737833
   0.71242145  0.92528854  0.43343607
   0.81708241  0.96201111  0.39856962
   0.84749890  0.94507441  0.26543347
   0.61472979  0.96881471  0.67403661
   0.54396962  0.97742976  0.57639930
   0.65367161  0.93665991  0.56463963
   0.43858665  0.89694601  0.66270643
   0.49551362  0.84635627  0.75219370
   0.44860055  0.77995648  0.66595359
   0.55873384  0.71153923  0.59712945