unknown system                          
           1
    15.000000    0.000000    0.000000
     0.000000   15.000000    0.000000
     0.000000    0.000000   15.000000
   C    H    N    O 
  80 188  25  24
Direct configuration=    50
   0.26010116  0.74880275  0.08397156
   0.25281259  0.67578140  0.22630484
   0.34217867  0.80974346  0.21799410
   0.88970796  0.69421998  0.56543085
   0.81579514  0.57193959  0.47593417
   0.91670114  0.67443672  0.40337586
   0.37913391  0.28164786  0.69955551
   0.39049463  0.12454951  0.63263526
   0.28618065  0.16447162  0.75409983
   0.40297686  0.37111873  0.09490609
   0.32734551  0.29047873  0.97520247
   0.25560614  0.42282295  0.03788699
   0.80145857  0.86085488  0.80610500
   0.77866140  0.70463126  0.87835524
   0.69467962  0.84010452  0.92669822
   0.69572630  0.10430288  0.78064153
   0.65072950  0.25280125  0.82532128
   0.78469212  0.18636988  0.88767046
   0.03801364  0.08603500  0.46997334
   0.10324647  0.08724828  0.62499135
   0.95593994  0.02453722  0.59333491
   0.88806791  0.63657089  0.14994479
   0.97723712  0.61840498  0.01946358
   0.02765169  0.54476319  0.15944166
   0.62171242  0.00517873  0.09903481
   0.50620039  0.03984260  0.22144003
   0.56569935  0.15482752  0.11514653
   0.70427146  0.79939132  0.31978242
   0.78974737  0.90595188  0.40543018
   0.82070649  0.88015507  0.24895884
   0.61441546  0.94381246  0.65339456
   0.49592273  0.83867988  0.68168202
   0.60850114  0.79593086  0.58222629
   0.72784865  0.21726915  0.54316233
   0.74386854  0.15046511  0.39315401
   0.60337708  0.14654204  0.46500003
   0.32385461  0.25695418  0.42480319
   0.19961412  0.29407943  0.32170323
   0.35348536  0.24508267  0.27879375
   0.28288093  0.49533802  0.79872691
   0.33297935  0.65241221  0.80869133
   0.19192464  0.60569769  0.87355777
   0.83908082  0.17787475  0.12423815
   0.94873022  0.29934472  0.09803847
   0.96459050  0.20289983  0.23181787
   0.31973690  0.89129378  0.88761689
   0.26910503  0.00463850  0.00158404
   0.40083750  0.02934566  0.89822306
   0.16389960  0.89814941  0.34660617
   0.06361461  0.87224924  0.21363405
   0.14599936  0.01299286  0.22429969
   0.09838118  0.66327774  0.66462777
   0.15680328  0.82043199  0.64660457
   0.00946401  0.78549056  0.71745039
   0.37708956  0.04960570  0.41820953
   0.47490641  0.92116579  0.41622247
   0.33729716  0.91217403  0.49736858
   0.02334568  0.02502120  0.93877736
   0.91259542  0.94015341  0.02359702
   0.02821969  0.86789337  0.93112732
   0.60958775  0.36768822  0.23963513
   0.66729381  0.41560875  0.10363625
   0.75876840  0.44147292  0.23675353
   0.99275554  0.27327525  0.74161380
   0.04306755  0.42678102  0.77529345
   0.88907149  0.40522838  0.73762833
   0.02602454  0.43179959  0.39934217
   0.14827171  0.54289203  0.40596641
   0.11895073  0.43880078  0.53151324
   0.49381537  0.69853271  0.05016862
   0.48795318  0.60960172  0.19592758
   0.62480047  0.62150292  0.10966582
   0.50113292  0.59493895  0.41981510
   0.49282377  0.61132080  0.58615854
   0.59144288  0.49431167  0.53712306
   0.42138410  0.47163974  0.50079784
   0.32706737  0.49092621  0.53453704
   0.55056039  0.68505132  0.41675803
   0.47304878  0.57738727  0.67794011
   0.65433501  0.43508125  0.47689045
   0.29487757  0.80956403  0.04899340
   0.18712300  0.76496820  0.08692866
   0.27615215  0.68602911  0.04690134
   0.18322262  0.69618157  0.24211787
   0.28761724  0.66277328  0.28779295
   0.24577814  0.61347886  0.18476846
   0.36619893  0.79012843  0.28766977
   0.83833407  0.74274938  0.58026880
   0.94479366  0.74008032  0.56174880
   0.89979844  0.65158728  0.62312096
   0.74632365  0.59682492  0.46636998
   0.81681694  0.53096876  0.53764985
   0.83255364  0.53441679  0.41578868
   0.91256440  0.61592220  0.35873471
   0.37872989  0.30280760  0.76709793
   0.32373024  0.32418894  0.67162232
   0.44073227  0.29508018  0.65956366
   0.44114585  0.08654498  0.66881567
   0.42057693  0.16302898  0.57616438
   0.33047555  0.08680836  0.60852699
   0.27246249  0.09003518  0.75532615
   0.45983915  0.39733428  0.05932577
   0.41600415  0.30345983  0.11794709
   0.38412181  0.41119112  0.15176609
   0.26473837  0.27614519  0.94167892
   0.34298581  0.23002260  0.01231409
   0.38569454  0.28757570  0.92818855
   0.19707172  0.39781484  0.99652275
   0.77657891  0.92675807  0.82221801
   0.78847632  0.84365664  0.73776786
   0.87417659  0.85582982  0.82545252
   0.83538888  0.69035109  0.92237397
   0.80348759  0.68308923  0.81115926
   0.71746966  0.67077377  0.89937204
   0.66505843  0.78739335  0.97628220
   0.69375043  0.13139570  0.70958417
   0.63373631  0.06867896  0.79397001
   0.75309771  0.05892664  0.79193671
   0.67326722  0.31387270  0.85546752
   0.58572928  0.23765094  0.85632674
   0.64545812  0.27118706  0.75370925
   0.79314218  0.25327219  0.91265948
   0.10493288  0.09774798  0.44995766
   0.99768208  0.14524380  0.45159074
   0.00545706  0.03353013  0.42869229
   0.16421365  0.07603123  0.58497235
   0.10618809  0.04742184  0.68450528
   0.10650538  0.15835928  0.64803096
   0.95970567  0.01191618  0.66690202
   0.82891818  0.61523820  0.11463651
   0.89662605  0.70794350  0.14916029
   0.88224190  0.61353428  0.21805052
   0.03067918  0.58749978  0.98633839
   0.97745951  0.69159414  0.02638157
   0.92000432  0.60129413  0.97553247
   0.08743001  0.52587351  0.12080117
   0.66593022  0.96489736  0.14185468
   0.66418484  0.04245801  0.05821170
   0.58541993  0.95656816  0.05637429
   0.50604042  0.08309248  0.27839322
   0.53093421  0.97457102  0.24664787
   0.44003588  0.02460902  0.19399500
   0.51490739  0.20183760  0.14616677
   0.63826844  0.83083442  0.33413876
   0.71029813  0.74861453  0.36995121
   0.70143409  0.76741426  0.25026212
   0.82223526  0.85738810  0.45011987
   0.73013810  0.93805563  0.43134776
   0.84059944  0.95805170  0.39352623
   0.87294504  0.93889089  0.25925815
   0.62131245  0.93970823  0.72672229
   0.56855911  0.99709653  0.63030636
   0.68243642  0.94645678  0.62231735
   0.44053195  0.88245902  0.66740325
   0.52192430  0.84858021  0.74854976
   0.47058996  0.76940367  0.67735392
   0.57181282  0.73623339  0.58935388
   0.67489361  0.22244531  0.59144745
   0.75765463  0.28333961  0.53041889
   0.78343203  0.17646056  0.57356494
   0.79043147  0.09485245  0.40736100
   0.78207032  0.20760074  0.37113824
   0.70911411  0.12500075  0.33321799
   0.58769932  0.10940501  0.40271099
   0.30200220  0.30909794  0.47190668
   0.39954669  0.24656947  0.43568390
   0.29030435  0.19602963  0.45368725
   0.15259474  0.27283872  0.37330431
   0.17127321  0.25919894  0.26062613
   0.19228258  0.36567294  0.30595616
   0.32541361  0.22915789  0.20840362
   0.34938192  0.47456924  0.82278204
   0.27277021  0.49335267  0.72627374
   0.23076356  0.45334256  0.82695358
   0.32133992  0.67395894  0.74183101
   0.39770838  0.62427546  0.80778219
   0.32420882  0.71064173  0.85131968
   0.18868518  0.67942960  0.89024238
   0.79489059  0.16798559  0.17960934
   0.84503210  0.11837065  0.08154062
   0.80594800  0.22832534  0.07841413
   0.90319917  0.35978645  0.09784648
   0.95159011  0.28164887  0.02660020
   0.01354538  0.32923909  0.11879285
   0.02633066  0.24337276  0.24497091
   0.33921403  0.89683357  0.81571630
   0.25242132  0.86682991  0.88498463
   0.36575494  0.84016017  0.91154242
   0.28993654  0.97971344  0.06822577
   0.20006086  0.97781203  0.98662762
   0.26810113  0.07681290  0.00421753
   0.40466537  0.09509311  0.92679156
   0.21552302  0.93716640  0.37597747
   0.18352063  0.82752253  0.34151280
   0.10976050  0.89870793  0.39493365
   0.03118973  0.82825094  0.26288567
   0.09866538  0.83187244  0.16238028
   0.01071369  0.91067569  0.17630393
   0.10592821  0.02723640  0.16253509
   0.17329834  0.65156270  0.66946876
   0.07702354  0.64004843  0.59791687
   0.06341591  0.62839644  0.71893606
   0.17838827  0.80413873  0.57716029
   0.21352208  0.81763174  0.69513109
   0.13952163  0.89553098  0.64947563
   0.00108721  0.85882039  0.72785804
   0.43271257  0.09019362  0.43962080
   0.31275604  0.06364606  0.44823431
   0.36877041  0.04876409  0.34188090
   0.53243231  0.96093268  0.44253398
   0.47929142  0.90738711  0.34367887
   0.48357591  0.85852624  0.44927111
   0.35434345  0.84320612  0.50860540
   0.97103297  0.06261299  0.90863807
   0.07624117  0.01685990  0.89031728
   0.04896892  0.07219778  0.99225711
   0.87886101  0.87451598  0.02177414
   0.86620311  0.99406399  0.00816844
   0.94045228  0.95423504  0.09084966
   0.99104158  0.80884579  0.94843738
   0.54920977  0.41277150  0.24803215
   0.63079099  0.34938815  0.30899378
   0.59385418  0.30847381  0.20166787
   0.72633889  0.44146516  0.06892522
   0.60996166  0.44737942  0.07219315
   0.66474388  0.34377281  0.08016995
   0.80702716  0.47419769  0.19214159
   0.93000277  0.23164030  0.73965478
   0.03112582  0.25715973  0.80326531
   0.02997882  0.26320900  0.67737336
   0.08790173  0.39252028  0.82397596
   0.01665535  0.48344336  0.80779176
   0.08784757  0.44099913  0.71732623
   0.88316208  0.48012926  0.75172702
   0.00247909  0.36975756  0.43340586
   0.04516506  0.42264873  0.33061696
   0.97267231  0.47683876  0.39905972
   0.20566024  0.51617336  0.36516207
   0.17417853  0.58749462  0.45827042
   0.10170246  0.57087173  0.35872447
   0.14203964  0.49516939  0.57175801
   0.53166515  0.67922424  0.99043828
   0.49610537  0.76964658  0.06341218
   0.42945960  0.66631630  0.03597112
   0.41967310  0.63256005  0.20259382
   0.52920253  0.62035415  0.25680921
   0.48117001  0.53622903  0.19317143
   0.64789511  0.58655077  0.17146441
   0.44589192  0.41777420  0.53835092
   0.42467884  0.45157334  0.43190294
   0.53372649  0.55066896  0.37634333
   0.43380662  0.59537417  0.39621855
   0.43789106  0.65371468  0.57331733
   0.55785874  0.64706094  0.58421861
   0.57720169  0.46053685  0.60025849
   0.63498158  0.55135939  0.54610389
   0.51548213  0.52474492  0.70268360
   0.40865467  0.55025941  0.67865871
   0.47113071  0.64092698  0.71906043
   0.55422340  0.71760567  0.34950509
   0.61712348  0.67429310  0.43608058
   0.51574092  0.73066059  0.45731112
   0.33126896  0.47243497  0.60456448
   0.28000411  0.45525442  0.49854440
   0.31061910  0.55809346  0.52724139
   0.68322283  0.46770005  0.42544143
   0.62765657  0.37083005  0.45414906
   0.69860793  0.41992023  0.52949362
   0.29461841  0.74571500  0.17614080
   0.87037075  0.65127365  0.48072696
   0.35018581  0.18879909  0.69468232
   0.32652404  0.37007271  0.03401101
   0.75324952  0.79982838  0.86969574
   0.71304522  0.18126084  0.83279945
   0.03039159  0.06522894  0.56214228
   0.96247729  0.58959187  0.10978827
   0.56374818  0.06915679  0.14793871
   0.76804317  0.86966244  0.32042225
   0.57715758  0.86269585  0.63009417
   0.69077882  0.16580889  0.46856922
   0.28872598  0.26626035  0.33937474
   0.27175539  0.58480330  0.83562837
   0.92022340  0.22246109  0.15425220
   0.33197757  0.97772348  0.92778760
   0.13024886  0.93044461  0.25822868
   0.08590214  0.75876806  0.67668395
   0.39503494  0.95919348  0.44565016
   0.99411513  0.94059999  0.96996129
   0.68176596  0.41391587  0.19697220
   0.97125668  0.36872388  0.74768199
   0.10720073  0.46636034  0.44721137
   0.53583792  0.64673310  0.11999537
   0.50269839  0.54560210  0.51199188
   0.36065467  0.88430492  0.19100387
   0.96015349  0.74293503  0.39440715
   0.24552514  0.21296931  0.80819930
   0.24894582  0.49702300  0.07724910
   0.66820225  0.91758342  0.91675313
   0.83783837  0.12730249  0.91063815
   0.89231645  0.00506098  0.54376636
   0.02706201  0.53665076  0.24217067
   0.61650590  0.18853693  0.05794069
   0.81799833  0.83718303  0.17899581
   0.67599348  0.79315109  0.53487907
   0.54405656  0.16725668  0.51717261
   0.43447079  0.22902792  0.29059765
   0.13114840  0.55143793  0.89272133
   0.94569265  0.14528080  0.28754656
   0.45204572  0.00578596  0.83816006
   0.19786508  0.07113942  0.25703586
   0.95293817  0.72992747  0.74684359
   0.26476615  0.94679250  0.51908009
   0.09818589  0.86569817  0.88528828
   0.77970851  0.43488460  0.31675655
   0.81489678  0.36909927  0.72506816
   0.09841016  0.36598044  0.56022370
   0.67937186  0.63852529  0.04983204
Direct configuration=   100
   0.28191299  0.73979691  0.08746455
   0.24980285  0.66005850  0.23190513
   0.32228506  0.80554655  0.22455844
   0.89257452  0.69820516  0.56155582
   0.81750695  0.58318445  0.47391331
   0.92394611  0.69010343  0.40411752
   0.39941221  0.27191524  0.69192311
   0.39087331  0.10569500  0.64603895
   0.28516874  0.17156049  0.75124376
   0.40286344  0.39873907  0.08187586
   0.31993466  0.29391575  0.97779970
   0.25530255  0.43708061  0.03233283
   0.81359664  0.86641305  0.81798608
   0.78160242  0.71466741  0.86745590
   0.67255096  0.83087205  0.89539221
   0.69632879  0.10191316  0.79863952
   0.65450971  0.26165113  0.82858609
   0.79076830  0.19759144  0.88798638
   0.04025729  0.07836617  0.47106843
   0.10075336  0.08233008  0.62107823
   0.94852039  0.02683396  0.59986577
   0.89399165  0.64204369  0.16578161
   0.95805772  0.60046053  0.01498015
   0.02271480  0.54776467  0.15529542
   0.63647328  0.00019117  0.08831037
   0.51956360  0.02730999  0.20370645
   0.57697548  0.15079224  0.10735822
   0.69248982  0.81078451  0.32162581
   0.79512622  0.91532389  0.40394679
   0.81942904  0.87760144  0.24831556
   0.63200503  0.96871630  0.65020798
   0.51572806  0.87062536  0.71306880
   0.62045585  0.81726048  0.60231574
   0.73064358  0.20579115  0.54101966
   0.74607425  0.15843998  0.38469713
   0.59793832  0.16836255  0.45695619
   0.30052304  0.23528128  0.43490332
   0.19867430  0.26020406  0.31034674
   0.35326663  0.24141716  0.26633670
   0.27961924  0.50717593  0.79963481
   0.31102330  0.66918325  0.83487745
   0.17587279  0.59856049  0.88499777
   0.83699146  0.17718823  0.13046949
   0.95721370  0.29820163  0.10468532
   0.96114702  0.19827586  0.23394902
   0.30493971  0.89412006  0.89005435
   0.27292016  0.01020102  0.00687848
   0.39184746  0.02660202  0.89642641
   0.16284013  0.90998806  0.35528364
   0.06288084  0.86835502  0.22400925
   0.14793026  0.00793812  0.23055932
   0.10659382  0.66443825  0.65190566
   0.16021274  0.82585352  0.66742630
   0.01800387  0.78424657  0.72717465
   0.36978730  0.03630557  0.39588883
   0.48837375  0.92858427  0.42699727
   0.34863890  0.91571870  0.50438951
   0.03526765  0.03383632  0.93110667
   0.92140235  0.95780856  0.02255950
   0.03051963  0.86845981  0.94056508
   0.61750285  0.35798762  0.24308550
   0.68573790  0.40330600  0.09023293
   0.75786569  0.43863202  0.23143446
   0.98460090  0.27068784  0.73269700
   0.05404136  0.41249958  0.78319597
   0.89690044  0.40466736  0.73546202
   0.01802049  0.40686444  0.39398005
   0.11950605  0.54542698  0.41148729
   0.11117953  0.43669603  0.52471588
   0.49893751  0.69593577  0.02015491
   0.45932960  0.59373806  0.14753899
   0.61495091  0.61787183  0.09533465
   0.52079225  0.59124815  0.43311432
   0.49930792  0.60340489  0.59983066
   0.58396876  0.47084394  0.54487274
   0.43150687  0.47531366  0.50252251
   0.35056220  0.50783975  0.55224506
   0.55925529  0.68198151  0.43823397
   0.49143608  0.56330638  0.69601496
   0.60793130  0.41346848  0.46680347
   0.33700033  0.77520918  0.05867804
   0.22337769  0.77811201  0.07044445
   0.27608181  0.67328653  0.06290037
   0.17847110  0.65125656  0.21759263
   0.26173809  0.67658374  0.30393325
   0.28386728  0.59788573  0.21521448
   0.32325201  0.80310998  0.29851166
   0.83723754  0.74268383  0.58530578
   0.95216002  0.74408075  0.56522859
   0.90842766  0.65053754  0.61417687
   0.74942391  0.60836152  0.46780431
   0.82060859  0.54822567  0.53670978
   0.83669072  0.53483149  0.42186485
   0.89161894  0.66214597  0.34319487
   0.41556166  0.29596056  0.76250383
   0.35681652  0.32602877  0.66836165
   0.45738371  0.26766973  0.64997095
   0.44066066  0.07946676  0.69239706
   0.42676380  0.12387353  0.58708644
   0.33544012  0.05795783  0.63658498
   0.25766919  0.10395734  0.74286148
   0.44672700  0.44503559  0.04294340
   0.43289021  0.33499160  0.10383574
   0.37440763  0.43512154  0.13955550
   0.25543375  0.29279938  0.94258391
   0.32369826  0.22993034  0.01834919
   0.37123149  0.28879969  0.92803611
   0.19990276  0.42226746  0.98836383
   0.79281800  0.93383035  0.82990503
   0.81132587  0.85417248  0.74398920
   0.87939968  0.85187597  0.84497543
   0.82858368  0.71215397  0.92496167
   0.82634926  0.69479497  0.81144522
   0.72508814  0.67400574  0.87682004
   0.64494198  0.77296027  0.92690900
   0.69169287  0.10085168  0.72778912
   0.62696517  0.08718740  0.82347591
   0.74173877  0.05525365  0.82975077
   0.68263280  0.32916961  0.84089507
   0.60157090  0.24954672  0.87814517
   0.62592645  0.26661224  0.76099556
   0.80052416  0.26248770  0.92248999
   0.09432136  0.03145211  0.44802754
   0.06059778  0.14656340  0.45216703
   0.98002130  0.06796246  0.43086153
   0.15982837  0.08998172  0.58095647
   0.11638995  0.02911482  0.67172763
   0.09299377  0.14219659  0.66314026
   0.95695629  0.02260213  0.67290138
   0.83124334  0.65541703  0.12455880
   0.92154156  0.70915885  0.18187068
   0.88172016  0.60557624  0.22836775
   0.99709919  0.54386130  0.98712032
   0.98087106  0.66559278  0.98956832
   0.88855073  0.58840560  0.99210744
   0.06641020  0.50686861  0.11142246
   0.67445784  0.95565435  0.13220273
   0.68374325  0.03094320  0.03877505
   0.59448510  0.95167087  0.05048991
   0.47003389  0.08136249  0.21454923
   0.55324908  0.01634749  0.26775587
   0.48475474  0.96756585  0.17927836
   0.53053043  0.19120009  0.15278926
   0.65612524  0.82864545  0.38161307
   0.71304247  0.73880243  0.32809443
   0.65274444  0.81343033  0.26312181
   0.81192529  0.86564276  0.45469747
   0.73955652  0.95947727  0.42818978
   0.85057204  0.96184026  0.39377827
   0.87518407  0.92570934  0.25361198
   0.64532685  0.98706025  0.71957440
   0.59232511  0.01778644  0.61290965
   0.69174001  0.95396703  0.61467645
   0.45924479  0.91559280  0.69375269
   0.53208503  0.88482851  0.78378390
   0.49133803  0.80240303  0.70046815
   0.58057662  0.75550491  0.60006719
   0.68803515  0.23160423  0.59612436
   0.77254838  0.26233863  0.52161116
   0.77342885  0.15251349  0.56726629
   0.80958236  0.12965820  0.39983025
   0.75334923  0.22021018  0.34319851
   0.72078333  0.10359432  0.34303229
   0.57047855  0.14579734  0.39193288
   0.31619905  0.30550856  0.45403816
   0.36085123  0.20413886  0.45151241
   0.24102390  0.21428572  0.47639957
   0.16141924  0.19840389  0.31278517
   0.18575671  0.29326232  0.24554254
   0.16858548  0.30912119  0.35481706
   0.32730009  0.27904148  0.20893708
   0.35175322  0.50250482  0.80636050
   0.25808431  0.50274839  0.72874609
   0.24764376  0.45444812  0.83872611
   0.34001107  0.68310197  0.76591424
   0.36453503  0.65650340  0.88698329
   0.27121293  0.72861078  0.85154091
   0.16217454  0.66853109  0.90516260
   0.83757399  0.11538820  0.17056320
   0.83431089  0.16392259  0.05838554
   0.77696056  0.21441960  0.14635417
   0.92033315  0.35984861  0.11800396
   0.95066350  0.28788454  0.03147536
   0.02496520  0.31201025  0.12443817
   0.02048490  0.23226255  0.25285249
   0.30432925  0.89067026  0.81670431
   0.24269871  0.86298539  0.91072867
   0.36129048  0.85077807  0.91259726
   0.30016689  0.97713721  0.06659738
   0.20323274  0.99464330  0.99862984
   0.27525219  0.08318307  0.01488249
   0.40065872  0.09178418  0.93373590
   0.20651495  0.96581362  0.37447146
   0.20568341  0.85067813  0.35442602
   0.11335122  0.90126790  0.41094273
   0.02248990  0.83673523  0.27574991
   0.09205684  0.81879526  0.17898838
   0.01699272  0.90704692  0.18431683
   0.12033500  0.01086505  0.15798497
   0.16440988  0.63912573  0.68489649
   0.11565344  0.66065474  0.57965344
   0.04538596  0.62848146  0.67141568
   0.20942176  0.80733682  0.61860207
   0.19077425  0.84499802  0.72977040
   0.13453624  0.89010269  0.64423303
   0.01569850  0.85798254  0.73723836
   0.43062946  0.08190280  0.39861531
   0.30898142  0.06475341  0.42035996
   0.36286808  0.01767699  0.32849195
   0.53405307  0.98403423  0.43961914
   0.49052111  0.90801163  0.35682755
   0.51427108  0.86935565  0.46640256
   0.38482873  0.86187175  0.53775959
   0.98038998  0.07277767  0.89837265
   0.08718960  0.02344132  0.87991723
   0.06375169  0.07230522  0.98586033
   0.91469952  0.89655614  0.05996183
   0.86290036  0.96262920  0.97736663
   0.92346807  0.02065197  0.06024136
   0.99542003  0.81210181  0.98104971
   0.55392479  0.38612297  0.22691445
   0.63329852  0.36811726  0.31370606
   0.61810947  0.28553556  0.22818597
   0.73473378  0.44795290  0.06091114
   0.62236074  0.43706892  0.07327191
   0.68926434  0.34006940  0.05570935
   0.81406076  0.46274847  0.18902143
   0.93217714  0.25611871  0.68782893
   0.98173156  0.23127669  0.79349775
   0.04800753  0.26151752  0.69758329
   0.07170778  0.39499740  0.85216110
   0.03684422  0.48382339  0.78087618
   0.11429459  0.39413994  0.74526349
   0.89604755  0.47615101  0.74070180
   0.98870241  0.35589434  0.43856841
   0.05269282  0.38180082  0.33386147
   0.95521837  0.44484386  0.37520980
   0.18857533  0.54202401  0.43242446
   0.07948160  0.60346248  0.43935394
   0.11474738  0.54392811  0.34023756
   0.17182054  0.48148931  0.54505683
   0.54594765  0.68670348  0.96363038
   0.49949639  0.76230981  0.05275914
   0.43377852  0.67806943  0.99367415
   0.40011805  0.60526217  0.11077801
   0.45799995  0.62051637  0.21706322
   0.46484553  0.51904108  0.16013519
   0.63052300  0.57302630  0.14828696
   0.44853178  0.40675222  0.52989921
   0.42294504  0.46738671  0.42971046
   0.55854432  0.54671901  0.38320493
   0.45304606  0.58973589  0.40074243
   0.43840950  0.64526141  0.58797440
   0.55952625  0.64035653  0.59314650
   0.55472730  0.43113637  0.59797969
   0.64501837  0.50568474  0.56850077
   0.49499613  0.48951539  0.69265515
   0.42640109  0.57665226  0.72480067
   0.54310184  0.59087367  0.73784022
   0.57050255  0.70412179  0.36752417
   0.63194587  0.68559510  0.46527239
   0.50621854  0.72652829  0.46667716
   0.37130446  0.52174653  0.61757658
   0.29834769  0.45002645  0.54532015
   0.31529850  0.57054287  0.52029542
   0.62819541  0.46342008  0.40950328
   0.55433628  0.36979931  0.44187543
   0.66809856  0.37103022  0.48532880
   0.29245240  0.73215006  0.18235393
   0.88364520  0.65528553  0.47699971
   0.35471041  0.18492177  0.69503083
   0.32343111  0.37537255  0.03137394
   0.74947487  0.80557538  0.85858985
   0.72226541  0.19239207  0.83083887
   0.02478872  0.06242771  0.56225220
   0.95902743  0.59633583  0.11304819
   0.58017098  0.06105128  0.13400694
   0.76920332  0.87376997  0.32201299
   0.58992390  0.88408499  0.65479089
   0.68613231  0.17591289  0.46038581
   0.28915515  0.23975154  0.33612599
   0.25086698  0.59533967  0.83030838
   0.92105005  0.22134976  0.15410345
   0.31849258  0.98287334  0.92291268
   0.12580762  0.92711648  0.26713274
   0.08951340  0.75904016  0.67243810
   0.39788706  0.95688813  0.44460640
   0.99698117  0.94952617  0.96517173
   0.68773952  0.40091498  0.18811695
   0.97670224  0.36523423  0.75225400
   0.07853832  0.46478774  0.44832204
   0.52614459  0.63170731  0.08817810
   0.50937502  0.53733067  0.52101765
   0.35420597  0.86970519  0.18464004
   0.98174322  0.75099421  0.40768752
   0.25262580  0.22271795  0.80692870
   0.25614083  0.50145011  0.08298313
   0.64121427  0.90813935  0.90588241
   0.84415584  0.13642850  0.90523418
   0.88204311  0.00445643  0.55659613
   0.02860109  0.53843149  0.23833243
   0.61730034  0.19206405  0.04742720
   0.80753910  0.83300524  0.18028444
   0.68288937  0.82767661  0.55167626
   0.54642068  0.18444756  0.52069170
   0.43507976  0.22417211  0.26362702
   0.12847541  0.53473360  0.90324247
   0.93218807  0.14105613  0.28498616
   0.44514057  0.00265688  0.83999333
   0.19438682  0.06547197  0.26366845
   0.96004491  0.73506954  0.75583563
   0.27540447  0.94327754  0.52980801
   0.08818030  0.85058579  0.88297729
   0.76213768  0.44217871  0.31272105
   0.83081910  0.36772967  0.70364551
   0.08976504  0.36858423  0.56684710
   0.67626307  0.64452072  0.04485959
Direct configuration=   150
   0.26933767  0.72288428  0.08947958
   0.24189606  0.65793234  0.23952332
   0.32492885  0.79599247  0.22656416
   0.88799618  0.71044192  0.56545117
   0.82166328  0.59819737  0.46274168
   0.93991835  0.69575807  0.41069889
   0.40964433  0.25244847  0.69406910
   0.39455336  0.09187092  0.65707396
   0.28286405  0.17614807  0.75253393
   0.41166168  0.38976955  0.07031122
   0.30750292  0.29911480  0.97935814
   0.25535310  0.43707631  0.04544582
   0.80786815  0.88065546  0.82563562
   0.78415771  0.71654020  0.85409107
   0.66649214  0.82476444  0.87737633
   0.69210314  0.12137568  0.81391036
   0.66358279  0.28010247  0.83104549
   0.80290268  0.21321673  0.88851329
   0.02429473  0.08361149  0.47577195
   0.10242003  0.07222616  0.62236650
   0.94854778  0.02671654  0.60730821
   0.89753208  0.65130908  0.16411619
   0.93496910  0.58778830  0.00798980
   0.01434795  0.54365460  0.14407131
   0.65690015  0.00420430  0.07188055
   0.53579375  0.01914476  0.19109663
   0.57904171  0.14566906  0.09383800
   0.69365827  0.82384410  0.32507772
   0.80296850  0.92962175  0.39617670
   0.82292469  0.88107876  0.24270584
   0.63759589  0.99234612  0.65582786
   0.52839905  0.89168763  0.72660814
   0.63302420  0.82908540  0.62274990
   0.74038028  0.19323981  0.54125526
   0.74002304  0.16817797  0.37721731
   0.59855953  0.18751212  0.45156455
   0.31802197  0.25455548  0.41827909
   0.18089527  0.24796495  0.30074657
   0.34640990  0.22783461  0.26565243
   0.27717689  0.51978626  0.81220191
   0.28365987  0.68493446  0.83460350
   0.16081660  0.59774189  0.89881279
   0.83404107  0.18572612  0.13459319
   0.95845584  0.28949978  0.10384841
   0.95491105  0.19169377  0.23763655
   0.29876477  0.90237263  0.89487940
   0.27249283  0.00920360  0.01711698
   0.38638094  0.03732989  0.90014269
   0.14813761  0.89760980  0.36059479
   0.06723330  0.85739324  0.23311487
   0.14199154  0.00238636  0.23452213
   0.11485168  0.67347045  0.65312627
   0.16403702  0.82812255  0.66357373
   0.02269101  0.77690167  0.73227406
   0.36497046  0.00123503  0.37232968
   0.49836704  0.92903329  0.43263507
   0.36702470  0.92595278  0.52239863
   0.04321595  0.03012824  0.91250190
   0.92515512  0.97221888  0.02257011
   0.02925997  0.87053488  0.95016052
   0.62029427  0.33878222  0.21795613
   0.69967722  0.38200197  0.08394019
   0.75659400  0.44058789  0.22590607
   0.97697163  0.25816578  0.72548070
   0.04964358  0.39576959  0.78654731
   0.90083257  0.40318856  0.72093183
   0.01010597  0.40133194  0.40061308
   0.08955403  0.54128039  0.41388338
   0.09543364  0.43205846  0.53687398
   0.50126285  0.69088052  0.99216076
   0.45508615  0.60528570  0.13162821
   0.61598991  0.61208821  0.08245640
   0.51561675  0.57792254  0.44639592
   0.51316537  0.58788247  0.61153682
   0.60312335  0.46833420  0.52731059
   0.42618744  0.46845379  0.53752725
   0.33126051  0.51547376  0.54470389
   0.57130704  0.66288051  0.45361615
   0.51810515  0.54256080  0.70287329
   0.60507225  0.38749933  0.46425514
   0.32574742  0.75763449  0.06080339
   0.20731460  0.75528250  0.05914200
   0.26713628  0.64814367  0.07392620
   0.17155208  0.64793048  0.21717615
   0.24262502  0.67542992  0.31013806
   0.28042214  0.59796572  0.22595794
   0.33323606  0.78893743  0.29895023
   0.82351437  0.73491681  0.58538444
   0.93683517  0.76332468  0.57052151
   0.90987682  0.66458581  0.61993041
   0.76299171  0.61385036  0.50523990
   0.84923862  0.53108808  0.48432142
   0.80776213  0.58921844  0.39097471
   0.93295678  0.64677215  0.35579720
   0.44737423  0.25958391  0.75545845
   0.37234100  0.31683280  0.68646894
   0.45919249  0.24395620  0.63992713
   0.46345357  0.07877471  0.68295009
   0.40071736  0.10461413  0.58311009
   0.35170236  0.03476792  0.66896371
   0.24616684  0.11199801  0.76056844
   0.44477661  0.43850774  0.02743720
   0.44359303  0.32512651  0.06828906
   0.40926009  0.41730961  0.13770012
   0.24564221  0.29990997  0.93978941
   0.31081038  0.23964403  0.02001419
   0.36089984  0.29924935  0.92533581
   0.19056828  0.41592106  0.01342170
   0.77330447  0.94173488  0.85102636
   0.81466792  0.88794252  0.75367230
   0.87225917  0.87150668  0.85702896
   0.84794102  0.71862396  0.88815085
   0.79532676  0.68868233  0.78804097
   0.73363780  0.67337566  0.89337965
   0.63152535  0.75929571  0.89046715
   0.69019651  0.13267650  0.73969429
   0.62289477  0.10842491  0.83484912
   0.73880254  0.06816575  0.83207336
   0.70012585  0.34204756  0.84827692
   0.60185199  0.27766346  0.87119597
   0.64580639  0.28152321  0.76004900
   0.82322673  0.28485946  0.90333595
   0.06504434  0.04398778  0.42969975
   0.05041045  0.15181211  0.47247760
   0.95828184  0.08602931  0.44814414
   0.16050882  0.02627258  0.61258048
   0.08293293  0.06936991  0.69237742
   0.12889447  0.13970109  0.61163554
   0.96195153  0.00978437  0.67941565
   0.85483277  0.69374496  0.12797093
   0.94208173  0.69524619  0.20328927
   0.86133236  0.60994409  0.21199845
   0.99411656  0.55438432  0.97620705
   0.92723432  0.65458676  0.97927080
   0.87291588  0.55187632  0.99667836
   0.05975201  0.51043425  0.09640700
   0.70715656  0.97670356  0.11805111
   0.69036518  0.05223022  0.02574643
   0.63511406  0.94983961  0.03149672
   0.47018860  0.05099652  0.20323433
   0.58203287  0.01874920  0.24881482
   0.52689463  0.94811797  0.17589130
   0.52330025  0.17379629  0.12719743
   0.67742177  0.81698915  0.39685751
   0.70857248  0.76047789  0.29295697
   0.63567446  0.85453227  0.28597687
   0.82394778  0.88289587  0.44871872