unknown system                          
           1
    15.000000    0.000000    0.000000
     0.000000   15.000000    0.000000
     0.000000    0.000000   15.000000
   C    H    N    O 
  79 187  26  25
Direct configuration=    50
   0.24505638  0.75764149  0.09041126
   0.24854334  0.67707358  0.23269015
   0.33074300  0.81682701  0.22036090
   0.88722078  0.69902606  0.55648585
   0.82267741  0.55805951  0.49594871
   0.91885788  0.65384919  0.39948938
   0.35952843  0.28995459  0.71354922
   0.39288351  0.13591378  0.64246726
   0.26763398  0.16063711  0.74665273
   0.39236109  0.34289848  0.10021025
   0.32321398  0.29546575  0.96355289
   0.26027346  0.41844017  0.04400315
   0.78290143  0.84254092  0.78979229
   0.79120887  0.70491481  0.88121136
   0.72262899  0.84405446  0.93528139
   0.68882887  0.11373678  0.78385608
   0.63806710  0.25896552  0.84714912
   0.77483966  0.18992224  0.89973520
   0.04763069  0.09337491  0.46581783
   0.11638829  0.08158222  0.61036445
   0.96336833  0.02565894  0.58559701
   0.89561302  0.63303878  0.13473604
   0.99975630  0.63362298  0.01848905
   0.04050079  0.55417636  0.15763693
   0.61260499  0.01752062  0.09273153
   0.50704770  0.03877856  0.23089417
   0.55354311  0.16210576  0.12713836
   0.72376151  0.76975271  0.30723142
   0.78759042  0.89485055  0.39272399
   0.80886235  0.88134918  0.23112401
   0.61857336  0.91775664  0.65393042
   0.48033578  0.83756759  0.65030182
   0.60141401  0.78342809  0.56344394
   0.75467031  0.22965704  0.53996067
   0.75515133  0.16559468  0.38570899
   0.62388336  0.15039379  0.47568940
   0.28988570  0.29223551  0.42645870
   0.19586234  0.30505458  0.29641337
   0.35090630  0.23983612  0.28760579
   0.29290950  0.51787534  0.80202819
   0.35027164  0.67125994  0.80885115
   0.19927513  0.63052716  0.86842641
   0.82314231  0.17854008  0.14000046
   0.93468386  0.29784301  0.08409722
   0.96841152  0.20532169  0.21378239
   0.54501000  0.45431521  0.76804033
   0.68820294  0.50568660  0.83167458
   0.54489572  0.52074885  0.91158777
   0.34023541  0.89496217  0.88596219
   0.29884669  0.00423489  0.00434013
   0.40730729  0.04166085  0.88371405
   0.16112929  0.91097243  0.35049290
   0.05304634  0.87561944  0.22282852
   0.13542697  0.01266997  0.21782777
   0.10880744  0.66020885  0.66734926
   0.13733461  0.82325505  0.63532727
   0.01270742  0.77127183  0.72627781
   0.38455655  0.04738697  0.44746824
   0.46630677  0.91471366  0.40269357
   0.33071083  0.89963434  0.48344013
   0.02031417  0.02853728  0.96230902
   0.90412602  0.92720349  0.00818507
   0.03231223  0.87620373  0.91574064
   0.61580711  0.36199150  0.24281522
   0.67087299  0.42014250  0.10107738
   0.76623885  0.43248537  0.23602482
   0.98181183  0.26462264  0.74497546
   0.01673923  0.42882003  0.78672251
   0.86521608  0.38768628  0.75346554
   0.03019692  0.43017313  0.41572056
   0.15537013  0.54311394  0.41801134
   0.13527919  0.43564048  0.53670818
   0.49209488  0.69072509  0.06591369
   0.50718481  0.64199563  0.22486651
   0.63646270  0.64545584  0.12705920
   0.45760102  0.52872985  0.39945878
   0.45427831  0.59258508  0.55434986
   0.58974233  0.51001981  0.49496771
   0.45681527  0.42608268  0.53250280
   0.24698979  0.83160383  0.06692059
   0.17420934  0.73396825  0.08720975
   0.29171818  0.71971710  0.04550020
   0.17561583  0.68183068  0.24565011
   0.27559267  0.67129292  0.30056251
   0.27044927  0.61526984  0.19625383
   0.35039589  0.80320438  0.29101753
   0.82659060  0.72611609  0.58270809
   0.92781478  0.75730790  0.53895538
   0.92553101  0.66289989  0.60548045
   0.75331226  0.56319133  0.47108854
   0.81458325  0.55167793  0.56945643
   0.85481901  0.50227022  0.46361319
   0.91388428  0.59001682  0.35819095
   0.33194608  0.30272496  0.78124679
   0.32073698  0.33464280  0.66640525
   0.43141593  0.30192081  0.70470485
   0.44702985  0.11370598  0.68610261
   0.41576380  0.17119517  0.57952674
   0.35190397  0.07715616  0.62132343
   0.25556696  0.08536741  0.74046415
   0.45689690  0.36305977  0.07640269
   0.39531045  0.27256009  0.11391480
   0.37246319  0.38350724  0.15768984
   0.25608728  0.28835168  0.93448538
   0.34188985  0.22932291  0.98602797
   0.37389169  0.31118545  0.91006325
   0.20673261  0.41062894  0.99394755
   0.76356783  0.90868765  0.80280487
   0.75170365  0.81566357  0.73065653
   0.85604425  0.83826632  0.78414480
   0.86382836  0.70318899  0.89764180
   0.77653798  0.66725238  0.82018889
   0.76001427  0.67420413  0.93801341
   0.70713589  0.79919273  0.99896810
   0.62438540  0.12127231  0.75058371
   0.69234352  0.05202010  0.82248628
   0.74698582  0.11558102  0.73571578
   0.63785683  0.29716193  0.91026671
   0.57155331  0.22751286  0.84345964
   0.64479316  0.30071977  0.78528743
   0.78033764  0.25504408  0.93085097
   0.07543437  0.15760167  0.46389826
   0.98333041  0.08700005  0.42212403
   0.10127121  0.04956322  0.43887849
   0.17049997  0.07276061  0.56164725
   0.12895359  0.03089568  0.66126974
   0.12285504  0.15195890  0.63879738
   0.96317717  0.01367184  0.65466221
   0.84129097  0.59558683  0.10269509
   0.88921296  0.70340207  0.12557148
   0.89221012  0.61785933  0.20510079
   0.05487129  0.60383257  0.98543005
   0.00984761  0.70682315  0.02105631
   0.94541170  0.61851980  0.96931435
   0.10469445  0.54657841  0.12390737
   0.66639008  0.98722087  0.12848256
   0.64522567  0.06166860  0.04505121
   0.57610939  0.96518843  0.05482397
   0.50960644  0.09001801  0.28418172
   0.54207829  0.98140901  0.26008602
   0.44179853  0.01565244  0.20972046
   0.51217596  0.20533573  0.16882039
   0.65629995  0.78170221  0.27763025
   0.71785526  0.74482173  0.37447015
   0.75662941  0.71644373  0.26522558
   0.82571264  0.85086002  0.43850736
   0.72276193  0.90949780  0.42053828
   0.83210701  0.95360547  0.38015276
   0.84585040  0.95090810  0.23998339
   0.60202654  0.92501842  0.72726449
   0.59549943  0.98156724  0.62317737
   0.68888562  0.90301369  0.64651325
   0.43506096  0.89020193  0.63211324
   0.48540728  0.83863169  0.72596804
   0.44716153  0.77432944  0.63285658
   0.54752696  0.74811664  0.52644080
   0.70525093  0.24688419  0.59174121
   0.79138893  0.29136128  0.51916567
   0.80480061  0.18122907  0.56580920
   0.81720284  0.13309510  0.39982373
   0.77043334  0.22915021  0.35211530
   0.72136170  0.12644307  0.33273182
   0.60302076  0.11507860  0.41361072
   0.23646332  0.25168444  0.45814313
   0.28134026  0.36084651  0.45267085
   0.35469277  0.26872330  0.44507186
   0.13718943  0.27358395  0.32664508
   0.19777242  0.28534450  0.22163736
   0.19016408  0.37815789  0.30092990
   0.32640803  0.22360075  0.21898587
   0.34181581  0.49535511  0.85150273
   0.31599877  0.51115142  0.73186786
   0.23232310  0.47743332  0.81031380
   0.38112523  0.66173856  0.74478259
   0.40809841  0.65354108  0.84895851
   0.33377534  0.74194999  0.81581160
   0.18470753  0.70160348  0.88224739
   0.77559875  0.20224132  0.19070243
   0.81950689  0.10447209  0.14125350
   0.79633705  0.19808319  0.07497763
   0.89896052  0.36505885  0.08974013
   0.93274834  0.27805754  0.01300095
   0.00219033  0.32133034  0.09334012
   0.03235534  0.24066481  0.21150103
   0.58848400  0.45761987  0.70674371
   0.48320345  0.48859127  0.75017919
   0.52670003  0.38293046  0.78894715
   0.71273636  0.43530467  0.81521401
   0.71322187  0.52959567  0.89770768
   0.70948946  0.54912787  0.77908408
   0.59139193  0.54223401  0.96856105
   0.39521411  0.88321189  0.83695055
   0.27514158  0.87518607  0.86552596
   0.35973409  0.84923424  0.93947150
   0.33516441  0.97576798  0.06388604
   0.23363663  0.96800450  0.00109937
   0.29250813  0.07571673  0.00857462
   0.40616775  0.10925306  0.90633634
   0.22290086  0.94798175  0.36073377
   0.16908981  0.83910367  0.35533616
   0.11245826  0.92203921  0.40257189
   0.00145398  0.86147513  0.27456879
   0.07918040  0.81164590  0.19596159
   0.02068505  0.90917610  0.16434976
   0.09754485  0.02897679  0.15213738
   0.18374391  0.65673320  0.67459736
   0.09337471  0.63002700  0.60218315
   0.07409636  0.61886675  0.72158475
   0.09716415  0.87682395  0.60729147
   0.16967959  0.79395129  0.57059843
   0.19525826  0.85074417  0.68015260
   0.99226095  0.84245933  0.72571588
   0.45054278  0.07750018  0.46853531
   0.33356387  0.06355717  0.49311369
   0.36793714  0.05892156  0.37851459
   0.52692799  0.94369170  0.42733862
   0.46306524  0.92772552  0.33201061
   0.47795707  0.84081191  0.41923930
   0.34352034  0.82734968  0.47398536
   0.97467959  0.06754062  0.92632798
   0.08439537  0.03362519  0.92534768
   0.02541585  0.06371240  0.02841717
   0.87841414  0.85878114  0.00450927
   0.85401897  0.97342841  0.98509728
   0.91635650  0.94067325  0.08096965
   0.00495742  0.81074044  0.91000459
   0.57331459  0.41750974  0.27636497
   0.63962726  0.32387604  0.30336884
   0.57635148  0.31962901  0.19842858
   0.73274639  0.41866408  0.06389167
   0.64309712  0.48925444  0.08831570
   0.62998303  0.36565069  0.07241899
   0.81827357  0.45801823  0.19075723
   0.94928613  0.21218167  0.78409015
   0.05494414  0.26520770  0.75969556
   0.96810063  0.25071087  0.67129274
   0.06640907  0.40453969  0.83688693
   0.98856471  0.49018619  0.81032881
   0.05667070  0.43938253  0.72484178
   0.85126231  0.45678613  0.77269546
   0.01569292  0.36894900  0.44702225
   0.03464063  0.42520135  0.34222603
   0.97755597  0.47584532  0.42884697
   0.19239239  0.52327860  0.35657332
   0.20747078  0.57118845  0.46379486
   0.10288281  0.58729033  0.40152526
   0.17468752  0.48638553  0.57159196
   0.53357592  0.70730142  0.00971503
   0.45090205  0.74684131  0.08309379
   0.45412248  0.62832071  0.04974350
   0.46908169  0.69237573  0.26471889
   0.56004479  0.61425994  0.26067382
   0.45482255  0.58924305  0.21209046
   0.67028296  0.62330014  0.18666406
   0.49901115  0.40195118  0.58591253
   0.46145742  0.37675665  0.47559114
   0.39214149  0.42759196  0.56233513
   0.49943518  0.49138617  0.35452495
   0.46745516  0.60166860  0.38746630
   0.38590240  0.51279752  0.39285300
   0.44416088  0.57489008  0.62678169
   0.38852369  0.60987306  0.52976810
   0.50183392  0.64625126  0.54922564
   0.60465215  0.45249332  0.45016885
   0.61460251  0.49780645  0.55977480
   0.61518724  0.57443671  0.47039788
   0.27694277  0.75506600  0.18345261
   0.87329034  0.63997907  0.47996089
   0.33579934  0.19512410  0.69670541
   0.32313568  0.35753151  0.03675259
   0.76011740  0.79370645  0.86786881
   0.70050124  0.18880283  0.84746304
   0.03556587  0.07045455  0.55870514
   0.97883046  0.60082904  0.10550469
   0.55680368  0.07414235  0.15274732
   0.77456575  0.85132056  0.30700079
   0.57086925  0.84481991  0.61854069
   0.70863457  0.17943334  0.46688682
   0.27811029  0.27533812  0.33330771
   0.27386350  0.61329624  0.82105461
   0.90905681  0.22358025  0.14545701
   0.58867183  0.50614664  0.83533421
   0.34433841  0.98771487  0.92067408
   0.11882758  0.93397036  0.26059374
   0.08525285  0.75532868  0.67681841
   0.39383059  0.95255260  0.45091272
   0.99031709  0.93666830  0.96358315
   0.69130374  0.40066421  0.19419823
   0.95017409  0.35925044  0.76103972
   0.11485067  0.46463238  0.45589387
   0.54842595  0.66789987  0.14198199
   0.48429327  0.51534603  0.49563560
   0.35959195  0.88629634  0.18799483
   0.95695674  0.72392981  0.38005787
   0.22313858  0.19731214  0.80456593
   0.25274341  0.48273432  0.09738637
   0.69358591  0.92149507  0.92688092
   0.82524222  0.12695440  0.91669061
   0.89949443  0.00026356  0.53844009
   0.03017957  0.53371869  0.23709282
   0.59688292  0.19723022  0.06416082
   0.80523759  0.84026047  0.15968963
   0.67736038  0.76436076  0.54678595
   0.57053838  0.16497804  0.53730536
   0.43214408  0.22924120  0.31011406
   0.14886567  0.57206935  0.89696466
   0.95486265  0.15525965  0.27743933
   0.46127494  0.51222574  0.92089832
   0.45767702  0.02226382  0.82055054
   0.18968711  0.07204001  0.23945787
   0.96749803  0.71340283  0.77007574
   0.26081516  0.93101892  0.51570826
   0.10868992  0.88436665  0.88383363
   0.78147592  0.43062459  0.31707253
   0.79965038  0.34110320  0.73088776
   0.11398166  0.36753593  0.57172199
   0.67789536  0.65330165  0.05580475
Direct configuration=   100
   0.25379427  0.74701426  0.09665285
   0.23915127  0.66527429  0.24067886
   0.31118246  0.81394039  0.22800424
   0.90324921  0.69772750  0.55499056
   0.82687830  0.55666948  0.50040707
   0.91560716  0.64720998  0.40227267
   0.35539852  0.28766165  0.71662817
   0.40403905  0.14442096  0.65718680
   0.26557264  0.15848299  0.75204667
   0.39425196  0.35505748  0.09034249
   0.31031321  0.30947605  0.94856722
   0.25789730  0.43433853  0.04902320
   0.79423367  0.83727381  0.77814506
   0.80612568  0.71217976  0.88437018
   0.71168419  0.83872471  0.92310854
   0.68329184  0.11268637  0.79946513
   0.62537251  0.25412505  0.86201051
   0.76423101  0.19214630  0.91905097
   0.04010131  0.10125824  0.45655171
   0.10701203  0.08843586  0.61312830
   0.97004603  0.01797913  0.57826370
   0.90981993  0.64490833  0.15773107
   0.00586007  0.63713134  0.01991288
   0.04229246  0.55462003  0.15520862
   0.61284322  0.01261472  0.07712840
   0.53465003  0.02862581  0.21913311
   0.55594694  0.16284816  0.12413227
   0.73163226  0.75175341  0.31521591
   0.78723494  0.89228442  0.38364384
   0.78938494  0.87169839  0.22314183
   0.63221749  0.91491748  0.65492961
   0.48125763  0.85836736  0.63919912
   0.59630814  0.78119077  0.56633186
   0.77266496  0.23654089  0.53281629
   0.75752546  0.18722690  0.37553264
   0.63124935  0.17193536  0.48254638
   0.24821305  0.25071491  0.41463207
   0.18510270  0.26888707  0.25703783
   0.34697292  0.24284492  0.28518415
   0.29814382  0.53930689  0.77459626
   0.34475639  0.69838498  0.80114871
   0.20939789  0.63829433  0.86665388
   0.81805590  0.18596561  0.14834903
   0.91754406  0.28796362  0.07295307
   0.96861177  0.20137399  0.20704378
   0.55023474  0.42881369  0.78586233
   0.68874722  0.49419119  0.84971362
   0.54361042  0.53232897  0.91034886
   0.34418192  0.90092780  0.89564293
   0.31003593  0.02579202  0.00010023
   0.40951203  0.04790077  0.87365735
   0.15381779  0.92934634  0.35062948
   0.03942338  0.87075767  0.24547035
   0.13278798  0.00645804  0.21355351
   0.11826950  0.65856095  0.64932634
   0.13065004  0.82695195  0.64235868
   0.02256428  0.76202417  0.74431435
   0.38737476  0.04607010  0.44400920
   0.47329668  0.91186400  0.40379756
   0.33594334  0.89182291  0.48149997
   0.03495172  0.04287339  0.96433752
   0.91299318  0.93549418  0.00044176
   0.04350297  0.88607782  0.92019496
   0.62537687  0.35556818  0.24109310
   0.69629328  0.40020396  0.09424209
   0.76591024  0.42926763  0.24313825
   0.97750417  0.25952817  0.74550748
   0.01151692  0.40644155  0.81369760
   0.86472360  0.37246306  0.75089805
   0.03526461  0.41788854  0.42716151
   0.14482891  0.53569511  0.41646631
   0.15289735  0.42748113  0.53877024
   0.49083918  0.70524179  0.05653104
   0.50161238  0.65848445  0.21769644
   0.62930630  0.65300871  0.12098926
   0.43548812  0.49968600  0.40885035
   0.43048742  0.59117099  0.54351481
   0.58163775  0.55136817  0.48584143
   0.47802683  0.43562557  0.54835901
   0.28510168  0.80480025  0.06868518
   0.18296256  0.75469057  0.08891472
   0.27383077  0.68805502  0.06246566
   0.16870411  0.65455489  0.23574275
   0.25064758  0.67813361  0.31163016
   0.27902738  0.60569789  0.22372583
   0.32079303  0.81046113  0.30138005
   0.84236037  0.74196441  0.56284783
   0.95842030  0.74267916  0.53258875
   0.92269426  0.67014614  0.62096767
   0.77314617  0.55711778  0.45148754
   0.79265008  0.56388927  0.56348939
   0.86914743  0.49474848  0.49354796
   0.88848003  0.59802785  0.35639298
   0.29882426  0.31808888  0.74663413
   0.36217887  0.31341747  0.64955409
   0.41873959  0.29716913  0.75151846
   0.47002546  0.14806883  0.69017464
   0.41191171  0.16578092  0.59085724
   0.38530784  0.07036687  0.65673931
   0.25621358  0.08795781  0.74507300
   0.44680349  0.40429821  0.06598295
   0.41783994  0.28503298  0.07996570
   0.37686457  0.37600665  0.15807719
   0.25619961  0.33237736  0.90365933
   0.29782984  0.23776336  0.96847364
   0.37156252  0.31568527  0.91079594
   0.21115265  0.45559645  0.99450789
   0.76182719  0.90339568  0.76889252
   0.77692648  0.79024620  0.72014703
   0.86999774  0.84087717  0.77930339
   0.87677200  0.71627787  0.90023674
   0.80164073  0.66713893  0.82212190
   0.77269755  0.67986014  0.93732627
   0.70757263  0.79774735  0.97981170
   0.61796201  0.08179016  0.81959633
   0.73548654  0.06151550  0.80696499
   0.67506031  0.14084767  0.73259713
   0.65953095  0.31393482  0.88181573
   0.56751974  0.24362603  0.90603794
   0.60291640  0.25446092  0.79165055
   0.74944084  0.25292458  0.96058682
   0.00023490  0.16776268  0.45647528
   0.01128000  0.05302165  0.41483807
   0.10526953  0.11715985  0.43390977
   0.17426748  0.09831743  0.58503340
   0.12085768  0.03181933  0.65693171
   0.08371004  0.14537918  0.65268718
   0.97724773  0.99267951  0.64980201
   0.84491421  0.61382215  0.13737020
   0.90259913  0.71718075  0.13795805
   0.92165544  0.63814494  0.22976487
   0.06999141  0.61709391  0.98883679
   0.00722551  0.71139947  0.01534093
   0.95693186  0.61298312  0.97224579
   0.09613016  0.52455877  0.11170850
   0.66378636  0.96600943  0.10983096
   0.64288158  0.04750894  0.02089882
   0.56230272  0.96949592  0.04673874
   0.47601475  0.06421682  0.24024838
   0.58544893  0.03089294  0.27305989
   0.52061698  0.95883931  0.19596061
   0.51367682  0.19247577  0.18764983
   0.66360847  0.75805017  0.29021908
   0.73203014  0.73029673  0.38715116
   0.77027646  0.70308816  0.27678518
   0.82941469  0.85734063  0.43060017
   0.72315502  0.90882283  0.41930564
   0.81692053  0.95324047  0.35943673
   0.82352298  0.94019928  0.22541189
   0.64110466  0.90298593  0.72460978
   0.60414656  0.98261954  0.64748912
   0.69574680  0.91057205  0.62072402
   0.45752098  0.93099326  0.63873236
   0.46569765  0.83490502  0.70412672
   0.43369246  0.82583593  0.59008987
   0.54139040  0.74043011  0.54411764
   0.74196562  0.23428367  0.59901419
   0.77258947  0.30773764  0.51624766
   0.84178217  0.20935610  0.53171183
   0.81421003  0.13917678  0.36698606
   0.77205068  0.25041023  0.34211550
   0.70498247  0.15525723  0.33481147
   0.59803774  0.13970431  0.42491432
   0.19788968  0.20281365  0.43492682
   0.22388243  0.31575793  0.43938619
   0.31767366  0.23456713  0.44450174
   0.16239729  0.20028178  0.25598992
   0.20105711  0.30153115  0.19460754
   0.13539343  0.31170155  0.29178287
   0.33884386  0.23934807  0.21206504
   0.33202349  0.49435017  0.82293971
   0.33425307  0.54793443  0.71256075
   0.23527243  0.50550810  0.76160692
   0.36541991  0.70956590  0.72834177
   0.40910887  0.69490509  0.83802474
   0.31408403  0.76052494  0.82436505
   0.19658762  0.71217709  0.88851464
   0.77203059  0.23472853  0.17820931
   0.81637122  0.13352079  0.20058056
   0.78514653  0.16036528  0.08728273
   0.90184751  0.35205844  0.10219300
   0.86691482  0.28094894  0.02268354
   0.98226517  0.30288942  0.03821991
   0.03753365  0.22698437  0.19181665
   0.60038433  0.40643205  0.74099321
   0.50794306  0.48449844  0.75415910
   0.50976714  0.37656117  0.81040364
   0.71843720  0.43214367  0.82804137
   0.70985388  0.51701275  0.91360711
   0.69549949  0.54627518  0.79535616
   0.59082810  0.57563827  0.94809196
   0.36869431  0.89013646  0.82738848
   0.26964315  0.88695762  0.90284065
   0.37639288  0.84845358  0.93897057
   0.33073846  0.98600148  0.05646046
   0.23858057  0.01773385  0.98751630
   0.32794253  0.09730585  0.00596114
   0.42384286  0.11530658  0.90613083
   0.20211823  0.98417989  0.36110543
   0.18895264  0.86423444  0.35225821
   0.09920113  0.92149397  0.40078859
   0.00725322  0.85676091  0.30787541
   0.06816764  0.80965695  0.21713030
   0.99340187  0.89223232  0.19422963
   0.10660958  0.01135181  0.14600731
   0.18718786  0.65300306  0.66671791
   0.11692004  0.65492374  0.57586076
   0.07795741  0.60480686  0.67274641
   0.12004886  0.88345331  0.69124682
   0.11596547  0.85330311  0.58058106
   0.19781520  0.81032516  0.64659207
   0.01880238  0.83697344  0.75759758
   0.44541583  0.06912774  0.47950411
   0.32380957  0.06342189  0.47587171
   0.39173405  0.06655988  0.37143154
   0.54166526  0.93481541  0.43148355
   0.46646655  0.92214674  0.33159491
   0.47458569  0.84271523  0.41387014
   0.35686234  0.82300186  0.47551497
   0.97801033  0.09091596  0.93470573
   0.09335554  0.05146821  0.92135142
   0.04701249  0.06117915  0.03355700
   0.90138992  0.86425274  0.00125978
   0.86361138  0.96971719  0.95445262
   0.90428607  0.95986316  0.06816769
   0.01528998  0.81737572  0.92311213
   0.56922981  0.39746381  0.24042875
   0.64202169  0.34469081  0.31059686
   0.60797093  0.29351681  0.20878516
   0.74744858  0.44674924  0.06696772
   0.63293170  0.42898483  0.07657298
   0.70857393  0.33242264  0.06764732
   0.82230445  0.46000072  0.20354525
   0.94756633  0.21633847  0.79613091
   0.05006613  0.25433049  0.74709783
   0.94788118  0.23495679  0.68450725
   0.02883001  0.37893811  0.87996909
   0.97386278  0.46966267  0.82253482
   0.07942908  0.41664666  0.78581059
   0.85187624  0.44502238  0.76184164
   0.02810491  0.34597607  0.45267973
   0.04935204  0.42245361  0.35497648
   0.96745665  0.44709545  0.43970579
   0.18860364  0.50690638  0.36678321
   0.18637973  0.57164280  0.46470558
   0.09098180  0.58120400  0.39037963
   0.22579807  0.45071717  0.54899253
   0.54507711  0.71487569  0.00341802
   0.45796311  0.76907644  0.07980459
   0.44213247  0.65995859  0.02836728
   0.44902672  0.70901563  0.21180006
   0.55099774  0.67842720  0.27460644
   0.46862069  0.59332469  0.22856135
   0.66292703  0.62925014  0.18279609
   0.47785025  0.44518922  0.62161127
   0.52469527  0.38484248  0.52490284
   0.40660422  0.41600583  0.54243606
   0.46357909  0.43655858  0.38357759
   0.44160296  0.55158403  0.35879774
   0.36689297  0.48971799  0.42974686
   0.46060260  0.61301247  0.60359399
   0.36318875  0.56248022  0.56521979
   0.42361410  0.65207589  0.49985320
   0.62226332  0.49385234  0.46535546
   0.60589618  0.58054507  0.55134958
   0.58357112  0.60241606  0.43298870
   0.27346647  0.74214159  0.19001527
   0.88704517  0.63361589  0.48704290
   0.33539281  0.19306779  0.70716813
   0.31267188  0.36426680  0.03116059
   0.76426661  0.79558752  0.86186929
   0.69646608  0.18759406  0.86195777
   0.04487860  0.06097321  0.54714952
   0.98475440  0.60798901  0.11271798
   0.56900905  0.07291502  0.13678902
   0.76528595  0.84294052  0.30482100
   0.57360869  0.84852502  0.61675495
   0.71858981  0.19501969  0.46487615
   0.26338138  0.26280085  0.31783566
   0.28253949  0.62600257  0.81286972
   0.90872047  0.21872795  0.13709092
   0.59383027  0.47156201  0.86139333
   0.35802926  0.99426197  0.92404863
   0.11091562  0.93336255  0.26309414
   0.08241378  0.75031891  0.67304342
   0.39580625  0.95056202  0.44495955
   0.00048348  0.95071102  0.96373469
   0.70037203  0.39556465  0.19341344
   0.95131967  0.34875866  0.76671521
   0.10669717  0.46572484  0.47362155
   0.54017971  0.66370284  0.12949824
   0.48168564  0.52191730  0.49356731
   0.34090582  0.87981587  0.19001393
   0.97155489  0.70670942  0.38040811
   0.20461756  0.19718060  0.79423663
   0.26017345  0.47335739  0.12049471
   0.68580360  0.91809392  0.92130117
   0.83581992  0.14730662  0.91973253
   0.90069354  0.00276659  0.53640162
   0.03265049  0.53085177  0.23476471
   0.57471020  0.21863860  0.06462680
   0.77282408  0.83179243  0.15351681
   0.67351843  0.76172880  0.54449992
   0.59588191  0.17965663  0.55765403
   0.41911858  0.22488161  0.32663373
   0.15667928  0.58064354  0.89104572
   0.94932675  0.15441765  0.27288342
   0.46220462  0.53416461  0.91230790
   0.44844905  0.03222550  0.80266914
   0.18091560  0.06724385  0.23767286
   0.98475738  0.70481747  0.78900496
   0.26963114  0.91709115  0.52305179
   0.10516551  0.88806724  0.86771426
   0.76523989  0.43462861  0.32592746
   0.80563359  0.32184506  0.72453050
   0.12252939  0.36603261  0.58743855
   0.67596436  0.66248682  0.05324206
Direct configuration=   150
   0.25051835  0.72567510  0.09759298
   0.23008915  0.66195057  0.25265045
   0.30145408  0.80668057  0.23163183
   0.90877279  0.69486921  0.55601871
   0.82364118  0.56515050  0.51597398
   0.93235688  0.63259259  0.40842654
   0.33214311  0.29668579  0.71230451
   0.39894734  0.15081586  0.65925876
   0.26308390  0.15839833  0.74970324
   0.40850128  0.37199776  0.06469954
   0.29355021  0.34045209  0.94030482
   0.25256662  0.43112212  0.06743168
   0.81740893  0.84587611  0.78809582
   0.81237235  0.71002240  0.88855913
   0.71097951  0.83862920  0.91385608
   0.69383411  0.09575673  0.81604296
   0.60738552  0.22971191  0.87685564
   0.76411173  0.20323549  0.91260153
   0.01705750  0.11000214  0.46150227
   0.10864760  0.09293776  0.60049128
   0.96867020  0.00637517  0.57109251
   0.92195737  0.66464201  0.16850156
   0.00098733  0.63071633  0.02491355
   0.04399717  0.55076566  0.15756288
   0.61669332  0.04047220  0.04570730
   0.56009637  0.01530412  0.21024771
   0.54880172  0.15706803  0.12313478
   0.73319533  0.74738905  0.32733160
   0.78944797  0.89636835  0.37710199
   0.76505758  0.86763896  0.22021529
   0.64332467  0.92296751  0.64271501
   0.48503056  0.87950989  0.64744462
   0.58992309  0.78307955  0.56790401
   0.79515848  0.24428570  0.52538746
   0.75232652  0.20042020  0.37240703
   0.64176742  0.19127602  0.49254020
   0.22505783  0.22483999  0.40071799
   0.18334981  0.25188217  0.22911310
   0.34310249  0.23719687  0.28613857
   0.30128171  0.55406271  0.75952676
   0.33922671  0.71561260  0.78450434
   0.21828195  0.63930246  0.86593840
   0.80849418  0.17915400  0.15352642
   0.92554946  0.27293119  0.06557445
   0.96116745  0.19572321  0.19653521
   0.54240537  0.43107732  0.79908675
   0.69257743  0.47746564  0.87030265
   0.54856851  0.53536933  0.92269177
   0.34328699  0.91825841  0.90327729
   0.32434784  0.04627563  0.00814211
   0.42031057  0.05414616  0.87258999
   0.14297921  0.92447287  0.36170120
   0.03890295  0.86608792  0.25314417
   0.11564865  0.00175618  0.21796906
   0.10757816  0.66475590  0.63710605
   0.12695930  0.82765664  0.64114523
   0.04064371  0.74691658  0.75413999
   0.38929920  0.03571719  0.43669532
   0.47688449  0.90246776  0.39670234
   0.34108961  0.88537569  0.48247512
   0.04530511  0.05630714  0.94982702
   0.92312423  0.95366123  0.00498914
   0.04861154  0.89842147  0.91485886
   0.62026828  0.35437582  0.23086302
   0.71950744  0.39162137  0.10190957
   0.76042025  0.43904894  0.25352151
   0.97776927  0.24501807  0.75666506
   0.00891851  0.38845643  0.82838033
   0.86882926  0.36281551  0.75525893
   0.03401143  0.40340725  0.44087011
   0.14262801  0.52785973  0.42399324
   0.14892915  0.43317323  0.55359066
   0.49357406  0.71881055  0.04934914
   0.48457094  0.66449415  0.20307025
   0.62789501  0.65191960  0.11509367
   0.43266353  0.47117318  0.41161869
   0.40494246  0.57624674  0.53085874
   0.55169644  0.57209116  0.46154314
   0.50255136  0.44890723  0.56173028
   0.30537995  0.76213844  0.06672688
   0.18589778  0.75386118  0.06783098
   0.25353439  0.65154892  0.07871333
   0.15308070  0.66472363  0.25757174
   0.25807916  0.67149732  0.32160043
   0.24648276  0.59706667  0.22590113
   0.30401012  0.80346289  0.30509308
   0.85119288  0.73603553  0.56777722
   0.96581955  0.73281351  0.53549926
   0.91876958  0.66159576  0.62127131
   0.81199477  0.51364299  0.46402349
   0.76206420  0.60704876  0.51785045
   0.83838101  0.54126595  0.58255861
   0.91385378  0.57178919  0.36673744
   0.25962511  0.31541460  0.69932074
   0.37430332  0.31898984  0.65514073
   0.35310448  0.32306108  0.77889048
   0.47084419  0.16130466  0.66511224
   0.38322150  0.17890067  0.58738402
   0.38870367  0.08180066  0.66000296
   0.26417578  0.08364242  0.74342769
   0.44990192  0.42052256  0.03354907
   0.43285708  0.30438754  0.05498960
   0.40413388  0.39203098  0.13404047
   0.26323482  0.39368198  0.90058683
   0.25420370  0.28018521  0.94455950
   0.35691612  0.33086735  0.90377973
   0.18471957  0.42549882  0.04107450
   0.79302109  0.91580656  0.78900545
   0.79850807  0.81798364  0.72475149
   0.88646691  0.84068973  0.78979436
   0.88609575  0.71267662  0.88130174
   0.79342364  0.65344292  0.84988437
   0.79419387  0.69396621  0.96174261
   0.69354299  0.79282828  0.97329859
   0.68652949  0.03185857  0.84790624
   0.76347623  0.09845836  0.79275657
   0.64346784  0.10631921  0.76227396
   0.62422417  0.29089173  0.91591082
   0.55644034  0.19512476  0.91761149
   0.58272230  0.23880147  0.80971772
   0.74891540  0.26998652  0.94557590
   0.97164131  0.16238731  0.47593352
   0.99230033  0.06672659  0.40835075
   0.08112742  0.14308447  0.44250125
   0.17495898  0.06328649  0.58714143
   0.09539234  0.08045468  0.67325591
   0.10673248  0.16605724  0.59220121
   0.97958569  0.97259676  0.64065842
   0.85911195  0.63399606  0.14783388
   0.91392555  0.73328953  0.14575639
   0.93455611  0.65829337  0.24033838
   0.06015170  0.59355988  0.99742627
   0.01364469  0.69650830  0.99925095
   0.93936510  0.60928184  0.99047827
   0.10206411  0.53301850  0.11621913
   0.67977201  0.00859301  0.06198774
   0.62505187  0.10044800  0.00541447
   0.57976643  0.99301061  0.00340027
   0.49836044  0.04134852  0.24283585
   0.62285533  0.01771876  0.24641066
   0.55331472  0.94730144  0.18739559
   0.51279702  0.18120085  0.19031010
   0.65980681  0.74375057  0.31996817
   0.75464276  0.73853336  0.39657975
   0.77201792  0.69795027  0.29335387
   0.84540631  0.86538919  0.41564230
   0.73372899  0.90197383  0.42352702